<?xml version="1.0"?>
<VTKFile type="UnstructuredGrid"  version="0.1"  >
<UnstructuredGrid>
<Piece  NumberOfPoints="1297" NumberOfCells="2496">
<Points>
<DataArray  type="Float64"  NumberOfComponents="3"  format="ascii">0 0 0  0 1 0  1 1 0  1 0 0  1.1 -0.1 0  -0.1 -0.1 0  1.1 1.1 0  -0.1 1.1 0  0.2408871533696444 0.6969991750627716 0  0.2397053292396313 0.3046416257327036 0  0.7599176997761802 0.3041148718615697 0  0.7606362994763599 0.6961383762734276 0  0.5001708118067189 0.5004890859701533 0  0 0.9499999999997918 0  0 0.8999999999995836 0  0 0.8499999999996529 0  0 0.7999999999999998 0  0 0.7500000000003466 0  0 0.7000000000006934 0  0 0.6500000000010401 0  0 0.6000000000013869 0  0 0.5500000000017335 0  0 0.5000000000020587 0  0 0.4500000000018723 0  0 0.4000000000016644 0  0 0.3500000000014564 0  0 0.3000000000012483 0  0 0.2500000000010403 0  0 0.2000000000008322 0  0 0.1500000000006241 0  0 0.100000000000416 0  0 0.05000000000020799 0  0.04999999999989965 0 0  0.09999999999981467 0 0  0.1499999999997036 0 0  0.1999999999995579 0 0  0.2499999999994121 0 0  0.2999999999992664 0 0  0.3499999999991206 0 0  0.3999999999989749 0 0  0.4499999999988292 0 0  0.4999999999986943 0 0  0.5499999999988151 0 0  0.5999999999989468 0 0  0.6499999999990784 0 0  0.69999999999921 0 0  0.7499999999993417 0 0  0.7999999999994734 0 0  0.8499999999996051 0 0  0.8999999999997368 0 0  0.9499999999998684 0 0  1 0.04999999999989965 0  1 0.09999999999981467 0  1 0.1499999999997036 0  1 0.1999999999995579 0  1 0.2499999999994121 0  1 0.2999999999992664 0  1 0.3499999999991206 0  1 0.3999999999989749 0  1 0.4499999999988292 0  1 0.4999999999986943 0  1 0.5499999999988151 0  1 0.5999999999989468 0  1 0.6499999999990784 0  1 0.69999999999921 0  1 0.7499999999993417 0  1 0.7999999999994734 0  1 0.8499999999996051 0  1 0.8999999999997368 0  1 0.9499999999998684 0  0.9499999999997918 1 0  0.8999999999995836 1 0  0.8499999999996529 1 0  0.7999999999999998 1 0  0.7500000000003466 1 0  0.7000000000006934 1 0  0.6500000000010401 1 0  0.6000000000013869 1 0  0.5500000000017335 1 0  0.5000000000020587 1 0  0.4500000000018723 1 0  0.4000000000016644 1 0  0.3500000000014564 1 0  0.3000000000012483 1 0  0.2500000000010403 1 0  0.2000000000008322 1 0  0.1500000000006241 1 0  0.100000000000416 1 0  0.05000000000020799 1 0  -0.1 1.05000000000004 0  -0.1 1.000000000000079 0  -0.1 0.9500000000001624 0  -0.1 0.9000000000003032 0  -0.1 0.850000000000444 0  -0.1 0.8000000000005848 0  -0.1 0.7500000000007256 0  -0.1 0.7000000000008665 0  -0.1 0.6500000000010508 0  -0.1 0.6000000000012352 0  -0.1 0.5500000000014196 0  -0.1 0.500000000001539 0  -0.1 0.4500000000014195 0  -0.1 0.4000000000013 0  -0.1 0.3500000000011588 0  -0.1 0.3000000000010178 0  -0.1 0.2500000000008986 0  -0.1 0.2000000000007579 0  -0.1 0.1500000000006174 0  -0.1 0.1000000000005272 0  -0.1 0.05000000000040083 0  -0.1 2.671196597248127e-13 0  -0.1 -0.0499999999998666 0  -0.0500000000000906 -0.1 0  -1.730560139634463e-13 -0.1 0  0.04999999999975802 -0.1 0  0.09999999999961506 -0.1 0  0.1499999999994613 -0.1 0  0.199999999999302 -0.1 0  0.2499999999991446 -0.1 0  0.2999999999990088 -0.1 0  0.3499999999988296 -0.1 0  0.3999999999986936 -0.1 0  0.4499999999985143 -0.1 0  0.4999999999984002 -0.1 0  0.5499999999985247 -0.1 0  0.5999999999986493 -0.1 0  0.6499999999987955 -0.1 0  0.6999999999989417 -0.1 0  0.7499999999990659 -0.1 0  0.7999999999992116 -0.1 0  0.8499999999993573 -0.1 0  0.8999999999994526 -0.1 0  0.949999999999584 -0.1 0  0.9999999999997226 -0.1 0  1.049999999999861 -0.1 0  1.1 -0.0500000000000906 0  1.1 -1.730560139634463e-13 0  1.1 0.04999999999975802 0  1.1 0.09999999999961506 0  1.1 0.1499999999994613 0  1.1 0.199999999999302 0  1.1 0.2499999999991446 0  1.1 0.2999999999990088 0  1.1 0.3499999999988296 0  1.1 0.3999999999986936 0  1.1 0.4499999999985143 0  1.1 0.4999999999984002 0  1.1 0.5499999999985247 0  1.1 0.5999999999986493 0  1.1 0.6499999999987955 0  1.1 0.6999999999989417 0  1.1 0.7499999999990659 0  1.1 0.7999999999992116 0  1.1 0.8499999999993573 0  1.1 0.8999999999994526 0  1.1 0.949999999999584 0  1.1 0.9999999999997226 0  1.1 1.049999999999861 0  1.05000000000004 1.1 0  1.000000000000079 1.1 0  0.9500000000001624 1.1 0  0.9000000000003032 1.1 0  0.850000000000444 1.1 0  0.8000000000005848 1.1 0  0.7500000000007256 1.1 0  0.7000000000008665 1.1 0  0.6500000000010508 1.1 0  0.6000000000012352 1.1 0  0.5500000000014196 1.1 0  0.500000000001539 1.1 0  0.4500000000014195 1.1 0  0.4000000000013 1.1 0  0.3500000000011588 1.1 0  0.3000000000010178 1.1 0  0.2500000000008986 1.1 0  0.2000000000007579 1.1 0  0.1500000000006174 1.1 0  0.1000000000005272 1.1 0  0.05000000000040083 1.1 0  2.671196597248127e-13 1.1 0  -0.0499999999998666 1.1 0  0.2325876964446091 0.6738988016796916 0  0.2269419752698322 0.6488163712070777 0  0.2219601620522291 0.6234278565941672 0  0.2178164963856995 0.5982777922285177 0  0.2144175027063324 0.5735522308362984 0  0.2116519977043597 0.5491896692936333 0  0.2097084423311779 0.5250039488761996 0  0.2092563573780699 0.500839239514249 0  0.2097114069021845 0.4766994931519608 0  0.2113183033439694 0.45241276438944 0  0.2138497057237375 0.4280185866106949 0  0.2171836781504129 0.4034372941748028 0  0.2211169249548516 0.3784741745676342 0  0.2259229242981467 0.3530835734512088 0  0.2313407394084167 0.3278964243997463 0  0.2637977889628428 0.2991819150646689 0  0.2898474498574724 0.295913415335626 0  0.3164139511432568 0.2930953734895779 0  0.3430109405560797 0.2904531140789274 0  0.3695196275588631 0.288190565912302 0  0.3958318204124063 0.2862126367128685 0  0.421950711790537 0.2845230975437952 0  0.4479676784861733 0.2831107211785919 0  0.4739603523273142 0.282366663735682 0  0.499879964652307 0.2821065813372809 0  0.5257953305045941 0.2824176969983025 0  0.5517544669888442 0.283227353254427 0  0.5778210430093088 0.2844123970047712 0  0.6039777371004877 0.2861353688654241 0  0.6303744914977466 0.2880215373920786 0  0.6569172884869843 0.2902042324003991 0  0.6834630880249511 0.2927584525270426 0  0.7099376968806386 0.2955303110366803 0  0.735871962281849 0.2986826145405017 0  0.7680010370525264 0.3272649882664628 0  0.7738265011136197 0.3522390290707607 0  0.7787560530241803 0.3776268923587761 0  0.7828141911471179 0.4027130941199348 0  0.786159162381316 0.4273843635941659 0  0.7887393012014423 0.4517677176726061 0  0.7902380805587529 0.4759382407500283 0  0.7905974778353453 0.4999150319888117 0  0.7898213933833438 0.5238559211987442 0  0.7882119835977561 0.5478672052742204 0  0.785919570267419 0.57222486076529 0  0.7826860143031829 0.5968388038877271 0  0.7791049364282719 0.6221492857604233 0  0.7743781474443958 0.6476757418582944 0  0.7687836767541975 0.6728572462475066 0  0.7365679404551789 0.7016670707410413 0  0.7105981897249981 0.7048147580583483 0  0.6842180998833169 0.7077855588131466 0  0.6576612743946865 0.7105198484833142 0  0.631130601032868 0.7129412499396777 0  0.6046786389233965 0.7149723840162659 0  0.5785117679018055 0.7167533142539194 0  0.5524757520732556 0.7179704911780844 0  0.5265599928266294 0.7187394394890898 0  0.5007152128186383 0.7189883263180235 0  0.4748540338240091 0.7187761574400509 0  0.4489338264180238 0.7179579386884118 0  0.4229699809544155 0.7166126361758084 0  0.3967997094863784 0.7150172269005632 0  0.3704169845272823 0.7130862341562995 0  0.3439463321317803 0.7108068484704931 0  0.3173760148066823 0.7082754981515533 0  0.2908613154586052 0.7054973902477081 0  0.2648984931105515 0.7023342841066588 0  0.3545238813630256 0.3131744676044492 0  0.2391644433102414 0.4395279622220591 0  0.355390783303247 0.6880989169764462 0  0.2395897683205959 0.5620597102818596 0  0.7600840769724584 0.5851682305502016 0  0.6192106862628143 0.6910397124858887 0  0.6441968381942067 0.3124212735691411 0  0.762647185842614 0.4380957076852808 0  0.763999192900474 0.5114322931705836 0  0.564818769874614 0.3062868298958249 0  0.4352196780505043 0.3083572410864281 0  0.4345803104233512 0.693169530514417 0  0.5399611335713169 0.6946596712308172 0  0.2365012885242947 0.4885626301356484 0  0.2428399070489809 0.3897231786963229 0  0.4869641301271116 0.3090680595709205 0  0.2502553505247039 0.6101263276334592 0  0.7502198437114768 0.386831324024978 0  0.4875725827221886 0.6950946892890014 0  0.6729121750732742 0.6858600047787777 0  0.2999771893517469 0.3201779324767438 0  0.7002849664619492 0.3212374945666289 0  0.3019280475267199 0.6835855811344013 0  0.7504602553058543 0.6377266962795636 0  0.2527806413701362 0.3395189609990146 0  0.2566303431715858 0.66051516279764 0  0.7263037267427375 0.6803637681571693 0  0.7477155293180583 0.3383041514121475 0  0.3286230942817159 0.6859263612773635 0  0.3404497228581189 0.663883286470339 0  0.3671508132638091 0.6654362899520186 0  0.3517226050282378 0.6412164410355959 0  0.3796588716745412 0.6423979829077817 0  0.363097278999639 0.6156454844392208 0  0.3965559852483941 0.6167076022117245 0  0.3768136969921173 0.5849052979639743 0  0.3299913597266323 0.6137447239205603 0  0.4175737942883166 0.5852477528237657 0  0.393426557320895 0.5490669238402985 0  0.345613483601354 0.5546284998929086 0  0.3657085692947661 0.5150108075187363 0  0.3203573018593979 0.5172267914335338 0  0.3360382073246225 0.4821838391275738 0  0.3837151134709515 0.4768201234025871 0  0.3584724133245456 0.4437575181032117 0  0.4017951384423382 0.4383698732284331 0  0.3779070286121228 0.407024884912687 0  0.4175496471071267 0.3952679245104214 0  0.3367819100978637 0.4083931324072343 0  0.3891596709039906 0.373803948974992 0  0.4289477703483611 0.6189060519172577 0  0.4590936721376541 0.5931802800578125 0  0.4811605417178424 0.6195044569231457 0  0.5029500834893854 0.5947756079134201 0  0.5238340990208523 0.6196700197803869 0  0.5457406091289821 0.5951827318742586 0  0.566029915615951 0.6203299889155967 0  0.5880312710832151 0.5961359719888019 0  0.6087883682563343 0.6239056625910373 0  0.630068192773241 0.5903220544906636 0  0.6111365577404725
[...]
<PointData  Scalars="u"> 
<DataArray  type="Float64"  Name="u"  format="ascii">3.5827548645788944e-19  -1.8700961218989419e-18  -3.5130032893472003e-18  -1.2714447218495053e-18  3.4640220186879833e-20  -1.7219460805199659e-20  1.9452312760754836e-19  9.0127470200257645e-20  -8.7641720916822874e-02  -8.7987385567297488e-02  -8.7939344239648998e-02  -8.7503450022402174e-02  1.2982115126939689e-01  1.2965900525143845e-18  2.5154383293546627e-18  -1.4718063404647212e-17  -1.9244868813377712e-17  3.2885626196274608e-18  -2.8019203682317311e-17  -1.0233688494809408e-17  -2.1273440827633537e-17  -1.4359964769359864e-18  -2.4449119483869489e-17  -2.9882872487226442e-17  2.4405517079366548e-17  -3.4072435806220223e-18  -1.4815737339296372e-17  1.4155283568564584e-17  -2.5397415440882953e-17  9.0954595773021637e-18  -9.6898155040513477e-19  -8.1970167541460924e-19  2.7007109528087536e-19  -4.5511086887784484e-18  -2.6343011364690125e-18  -1.6768014356014281e-17  -7.6888284962750969e-18  3.4002502838156578e-18  -8.9193454967235218e-18  -2.2534877413086633e-17  -5.5679091648765889e-18  -7.2489583303076653e-18  -1.2502803827968190e-17  1.8343379106856337e-17  -1.1771517530661842e-17  -1.0928845553253487e-17  -1.2255849965026165e-17  -2.6708144359859129e-17  -1.1787960964142953e-17  1.7326925555978465e-17  1.1851974931456692e-17  -1.2613085701203086e-17  -2.1392134618936095e-17  -2.3190449080707427e-17  -2.4945739312718250e-18  -1.2885425548662906e-17  -1.0111632026762309e-17  7.8289750954874606e-18  -1.0956640186651127e-17  -1.0383022722337987e-17  1.2948314066440947e-19  -1.5062342718141499e-17  -1.3988588078877637e-17  -1.4487147974180559e-18  -1.6354310995016465e-17  -1.3599170053374008e-17  -2.9921085983508980e-18  -5.4848630941119992e-18  -2.0600996026913875e-17  -1.0346352509961047e-19  3.2172194387550856e-18  -3.8587349525462656e-18  -1.6636028521644986e-17  -1.5147633069794280e-18  -2.2495978136400345e-17  -1.4668959184119748e-17  -1.7857410258449306e-17  -2.1986405342718199e-17  -2.9313982524170186e-17  -4.5042523447066827e-17  -1.5413187595224019e-17  9.6989998743923379e-18  3.0134871831126516e-18  -2.0346290319862210e-17  1.8721824535598494e-18  0.0000000000000000e+00  8.9541716782295157e-18  -7.4817574797166710e-18  -2.2749428714500544e-19  -7.5229732184279803e-20  -1.5042336582984082e-19  1.2925178107673073e-19  -6.5843542713681425e-19  -2.6346831299717021e-18  -4.8850023842081008e-19  -6.1227984187872735e-19  -2.6277700303284327e-18  -2.7166163865751026e-18  -1.9490669060118471e-18  -8.8008204641972934e-19  -3.8003735860953301e-18  -3.7564917424016553e-18  2.1170792058255510e-18  1.0110658881342241e-19  -1.6030601340437812e-18  -2.0249392983604796e-19  -1.4810065038461857e-18  -2.5286619213672517e-19  5.8450236108488840e-19  -3.2011406490032097e-19  7.4024533740923704e-20  9.8102765584681582e-21  2.2824206768911757e-21  5.3821943461737595e-20  -1.5015154552398017e-19  -3.2760333770715102e-19  -8.2145857083128003e-19  -1.9597254733933247e-18  -1.2066842045162195e-18  -8.7244344111512068e-19  -1.3061286414874096e-18  -2.7109399283325966e-18  -1.3127630296037579e-18  -9.5019682969154043e-19  -3.3125909003741803e-19  8.0280399441595559e-19  -5.8706056607398877e-19  -1.8830632874910450e-18  -1.9128758380445749e-18  -4.1963230236842022e-18  -1.7000031008984447e-18  2.4478639900992026e-18  2.2355690440865340e-18  -2.6574721956387452e-19  -9.8181588091238913e-20  1.3406033676863889e-19  -3.3554775475858916e-19  -1.5752546806430098e-18  -3.8346713812191136e-18  -3.0012239246485765e-18  -9.2124566924504461e-19  -1.6467613218544650e-18  -1.1007679587173657e-18  6.0886397206143365e-19  -5.4886937341582887e-19  -1.6175345608263523e-18  -3.7107540735553281e-19  -1.9020671657390614e-18  -1.8121265800721736e-18  -8.3145681305136790e-19  -1.3919264949849185e-18  -1.8250332727292199e-18  -4.5226299440754294e-19  -1.2237884825248659e-18  -2.1559787977038768e-18  -6.9304623988133360e-19  -1.0564829090137205e-19  -1.6035831902220975e-19  -1.4732388203620710e-19  -2.5757959338419818e-19  2.8719125535764296e-19  -7.4250415753244568e-19  -1.2629364571228330e-18  -3.3618777790459050e-18  -2.1422491368268390e-18  -2.6919332477976420e-18  -1.7244896497365242e-18  -5.0101588460732352e-18  -6.4443713777599663e-18  -5.1179302803109208e-18  -2.7603669277477666e-18  1.8380037134792243e-18  4.8140950541138155e-19  -2.5913592001488470e-18  -8.1659253876727318e-19  3.1262379988144052e-19  1.1489033540271377e-19  -2.4739305608346153e-19  -5.5381410952890579e-19  -1.8189272293639928e-19  -4.1722234247399946e-20  -7.9170671851909291e-02  -6.9065549401056692e-02  -6.0127626066711674e-02  -5.2857228064830307e-02  -4.7596999603337811e-02  -4.4008487776670616e-02  -4.2108927046697768e-02  -4.1244253482052948e-02  -4.2042201490650292e-02  -4.4155428503311459e-02  -4.7681676325583497e-02  -5.2843028982362136e-02  -6.0084736056590288e-02  -6.9153523545060033e-02  -7.9362957924511743e-02  -8.4038069639562063e-02  -7.6981021924971652e-02  -6.9607707237430316e-02  -6.3194653932100969e-02  -5.7764948042510866e-02  -5.3561219963899051e-02  -5.0332937355961699e-02  -4.8111229352987742e-02  -4.6828854361166489e-02  -4.6346032953160907e-02  -4.6694457152382622e-02  -4.8013126508455913e-02  -5.0066399730493316e-02  -5.3549042137591804e-02  -5.7798292914222657e-02  -6.3139822831895898e-02  -6.9554096697269113e-02  -7.6976115567461700e-02  -8.4010321113576286e-02  -7.9226450238858409e-02  -6.9260177871726600e-02  -6.0268256340659000e-02  -5.2985212030495971e-02  -4.7735523336607633e-02  -4.4045511479052959e-02  -4.1851966761113475e-02  -4.1076222132014908e-02  -4.1587756558165948e-02  -4.3517624860567074e-02  -4.7223401349611858e-02  -5.2381255674452662e-02  -5.9791804674308419e-02  -6.8819700190966698e-02  -7.8853748486172798e-02  -8.3558138339789367e-02  -7.6396354343423151e-02  -6.9071162215361803e-02  -6.2643662269365685e-02  -5.7413883990465611e-02  -5.3161066222168776e-02  -4.9657501787179661e-02  -4.7568364760890602e-02  -4.6180712229130130e-02  -4.5680794839732961e-02  -4.6151136709574429e-02  -4.7417111384656693e-02  -4.9702354201307725e-02  -5.2931885348072159e-02  -5.7133582208977615e-02  -6.2560746490540747e-02  -6.9072495346613236e-02  -7.6461975790952735e-02  -8.3604987033399386e-02  -1.4871946999129131e-02  -4.1084590549947389e-03  -1.4299138826442801e-02  -4.1198703049120187e-03  -1.0695641256361011e-02  -9.1244964720288806e-03  -1.4948975741273622e-02  -5.8235327237675721e-03  1.2458986054469986e-03  -1.4537285576830298e-03  6.9662060280777408e-04  6.4358468899431602e-04  2.3300389314463515e-03  1.4197137301936919e-03  -1.9725869111198276e-02  6.4470601059980204e-03  -1.3772057923430251e-02  -1.5936038014458143e-02  3.5930202075579792e-03  -2.2809014252227068e-02  -3.1647511503466688e-02  -3.0674127269700771e-02  -3.2734586042970845e-02  -2.9473257671703144e-02  -4.2880344957549527e-02  -3.9955346521063383e-02  -4.4238239158787607e-02  -4.3697871333280111e-02  -2.2267770283408216e-02  3.2957008793377393e-03  1.2136302617035275e-02  2.9030550161019793e-02  3.9156835180118942e-02  5.5887136085236259e-02  6.7951809026192800e-02  8.0706034312869615e-02  4.1586908083877695e-02  9.4334144515693552e-02  1.0258034413073211e-01  7.8944972975320327e-02  9.7520314521575113e-02  7.1690575479670393e-02  8.1064888485058578e-02  1.0444524970123269e-01  8.4563062427500280e-02  1.0044037798359677e-01  7.5994422322128538e-02  8.1880230909432417e-02  5.7565521835396670e-02  5.6461267057547157e-02  7.4973412901394532e-02  9.8273427398167551e-02  8.1483965396516839e-02  1.0004400312819536e-01  8.0904244597066854e-02  9.6404226677406404e-02  7.4679839719752353e-02  8.6787745026260424e-02  6.0580621156334641e-02  7.5139043406012726e-02  9.8717760845021471e-02  7.8820381017975630e-02  9.8260796800281047e-02  5.5520920267980646e-02  5.3521200315836952e-02  4.0616849915750118e-02  4.5194699137201651e-02  5.3661530609967013e-02  4.0846174792299419e-02  5.9179355738921913e-02  8.3930190891690223e-02  1.9395244167269145e-02  3.3404193233152996e-02  4.8914294428597120e-02  4.2999257722328550e-02  5.5329532007578619e-02  8.6647463186069820e-02  5.2026126607313088e-02  7.9826904706978064e-02  1.0655777685493370e-01  9.2040581426245827e-02  6.8564269045818652e-02  7.4036860525299578e-02  1.0269382847200442e-01  7.8107607590827591e-02  5.4723882836712180e-02  5.4593791249438417e-02  6.9754923167116040e-02  3.3840981692864744e-02  2.8911321111712129e-02  9.3759907878895165e-03  8.7645284386726856e-03  1.1462758957880279e-01  2.8839824881725415e-02  3.0609763403204732e-02  2.3865169912921591e-02  4.0827670846387075e-02  7.8984826231185707e-03  2.9433680888344277e-03  1.7924877373205216e-02  4.8834742736560730e-02  2.5557112836647231e-02  1.6008589630705995e-02  3.2558685010412695e-02  5.9053181491789286e-02  3.7068952799006322e-02  3.1240578330454155e-02  5.5128596986110182e-02  3.3218231437511347e-02  1.3556369608032299e-02  5.6008552822149954e-03  1.7688072155939448e-02  2.1131964695751168e-02  3.1253994747312941e-02  1.0709472954702648e-02  5.2332777877516397e-02  1.1804173049799327e-01  1.1471767016041443e-02  1.1816500212626121e-01  7.3387484449781604e-02  4.5392209903624574e-02  6.8715507118370725e-02  4.2903392911028779e-02  2.2207951786235528e-02  1.7789243373366740e-02  3.2883858632622311e-02  4.9877571151500925e-02  3.1205782087968547e-02  2.7688170529742862e-02  1.0665051952534572e-01  -9.9299490010717716e-03  -1.2610423203140764e-02  4.6652778063317281e-02  2.2153477509664055e-02  2.6979241920346047e-02  4.1386480788244209e-02  3.0743671300160584e-02  1.0721619566930411e-02  3.0102558012839311e-02  1.2700857488281678e-02  9.3425920948815525e-03  -6.8876465728598645e-03  -2.1551614850427007e-02  -2.1917060202344216e-02  2.2215289249871827e-02  4.5425866407617990e-03  2.1225304619935585e-03  -5.9950194960922227e-03  -2.4459002432570185e-02  -2.9848515948325129e-02  -2.6815804248719669e-03  2.3662085043121048e-02  4.6161333462891405e-02  -1.4675416959009957e-02  -7.7159393157104966e-03  3.4625911829870420e-05  -2.3072736899923847e-02  1.4240741203556957e-03  3.2333223980925228e-03  -9.1287079549804990e-03  -2.9167231196524472e-02  -6.6212251496980601e-03  2.5858608048655888e-03  -9.7847387948060919e-03  1.2165002345618925e-02  -4.0621124313776321e-03  1.5403637419504186e-02  -7.8919161074086865e-04  -1.6146949968968916e-02  -3.2710108732592016e-02  -2.2607398375564955e-02  8.2568088675849804e-03  3.3540130367218791e-02  -8.2101249326335182e-03  -8.8356542215063515e-03  3.5650927869178449e-03  -4.4603789761433948e-02  -4.4524349515346312e-02  -4.2898923123862343e-02  -4.4950742731019157e-02  -2.5239513959439872e-03  1.0760690422875900e-01  1.2150339275606456e-01  2.3750162148856811e-02  -9.1026226777221140e-03  -1.1674862682504042e-02  -7.9611825704810363e-03  -3.0998972660910635e-02  4.9159898820101743e-04  7.6162108678132115e-04  2.8670088380069521e-02  4.5367976294698582e-02  2.2073088645580283e-03  4.6994926968935168e-02  1.1597971455469291e-01  1.1483804800387856e-01  9.0305287809240173e-02  1.7292215525261400e-02  1.0067077499259667e-03  2.5817938078662402e-02  1.6539699535368262e-02  2.5689924114291780e-02  -1.6323586497304474e-03  -7.7381543316912629e-04  1.1215818383271696e-01  -1.1009325091667641e-02  2.2741285585867622e-02  1.5432623055886748e-02  5.2754710585253543e-02  4.3473271442672811e-03  4.8788415292543089e-02  9.0197107617320665e-02  -4.0900911891607198e-03  1.2417742401087727e-01  6.2826775825663705e-02  -2.7768101760950913e-02  4.5321240225922016e-02  2.3841769467718845e-02  1.9806987097071290e-02  1.0842029380353849e-01  -3.3613412644635191e-03  8.5442019442574010e-03  2.4628636693073174e-02  1.2654024291493249e-01  1.6320430207739520e-02  2.5518628318998957e-02  1.2163504254858624e-01  5.9006550882729533e-02  2.6248018529221012e-02  1.2610193642577672e-01  4.9408616760237549e-02  1.1274441890795395e-02  5.3976155652502907e-03  3.4133832341892156e-02  5.8035896092426792e-02  2.2921390644023036e-02  -5.0452947171633856e-03  4.6512331828071581e-02  -5.5064739358057557e-02  -5.5028361199004477e-02  -5.4740127165163618e-02  -5.4636289833759781e-02  9.6979685271095847e-03  -1.1683685056713338e-02  1.2064278122718092e-02  -1.6838189831984425e-03  2.0081295529141941e-02  6.2327228131712639e-02  -7.9474860922205057e-03  3.8799304260569429e-03  3.7076855976828756e-02  6.9155759570334943e-02  5.6611827214771579e-02  7.1922768427783709e-02  8.1238164836979782e-03  6.9328197429004632e-02  2.6208864303134630e-02  7.6836366589941654e-02  1.2457846236754085e-01  3.2086750526656216e-02  5.4137646851047189e-02  3.7769060756227303e-02  2.3755046525300822e-02  6.5050102043080843e-02  6.8356942298888057e-02  1.1714965003090638e-01  -2.0816912448486047e-02  -7.4555592038086649e-02  -7.4895540805793498e-02  -8.2863465599221031e-02  -9.7463785440663642e-02  -8.3181977907498275e-02  -9.8120214450791415e-02  -7.5526127949217925e-02  -8.3039777686560123e-02  -7.5414548298919790e-02  -8.3276688348893860e-02  -9.7977349085656182e-02  -9.8078540777063683e-02  -5.1940877063786035e-02  -4.6357689215361271e-02  -5.6731533498743839e-02  -4.8007951312860543e-02  -6.6310386130787713e-02  -8.6031853437182781e-02  -8.6135340495975446e-02  -6.5920669880815796e-02  -1.0290166631741245e-01  -1.1131551804121198e-01  -6.8468437323233794e-02  -6.8727978385601726e-02  -9.4307848382140722e-02  -1.1079750726136510e-01  -1.1907508678515233e-01  -1.2044264825110071e-01  -1.2684259559900554e-01  -1.2869707243953180e-01  -5.1206570710696987e-02  -5.0084174309067767e-02  -5.1883299037457524e-02  -4.9260561717884725e-02  -4.4857634284260602e-02  -4.2941672588122509e-02  -4.6150154349894265e-02  -1.3279629678970573e-01  -1.3470494648153949e-01  -1.1728966882914435e-01  -1.0925254755582756e-01  -3.1371718542410422e-02  -3.7993448303698989e-02  -3.6052601070684490e-02  -2.7160122070538948e-02  -2.8766392678218337e-02  -2.5917698630593077e-02  -3.8472171968251666e-02  -4.6293788389479097e-02  -1.1342782773779164e-01  -1.0600110377678418e-01  -5.2942924232956219e-02  -4.7531748684733664e-02  -5.4049469833734237e-02  -1.0916415304855027e-01  -1.1320818791492947e-01  -1.1941000751111575e-01  -1.2348363243156066e-01  -1.2919376983755734e-01  -1.3120929911064896e-01  -1.2474652061671976e-01  -1.3555050730720292e-01  -1.3432362542446641e-01  -1.3376313439136353e-01  -1.0876613386564019e-01  -1.1328883465546981e-01  -1.1907797217961884e-01  -1.2317714218006079e-01  -1.1770903942937989e-01  -1.2875833609993428e-01  -1.3072935664305346e-01  -1.3499681880773776e-01  -1.3373482449751772e-01  -1.3350409195034868e-01  -7.8525400145911431e-02  -1.0326931870457413e-01  -1.1180236216562303e-01  -1.1128932160300703e-01  -1.1966297008879680e-01  -1.2100384272162341e-01  -1.2739110028917414e-01  -1.2933879820935415e-01  -1.3334209596622681e-01  -1.3561883428549365e-01  -6.4104255965413443e-02  -6.4796606150477304e-02  -7.3142949686923878e-02  -7.3335888647236086e-02  -1.2449683638608146e-01  -1.3618223479235408e-01  -1.3552934858571994e-01  -1.3504427122158036e-01  -1.3695599009813317e-01  -1.3621108491701575e-01  -4.7732983436021753e-02  -1.3615958118721017e-01  -1.3584316868041452e-01  -1.3436650253011398e-01  -1.3552618159599353e-01  -1.3529621581573725e-01  -1.2874572054193689e-01  -7.7405606207781627e-02  -1.3129189372316896e-01  -1.3250473252573056e-01  -4.3289697569344719e-02  -3.9705564838240524e-02  -4.2933267105324385e-02  -1.3067409899102933e-01  -1.3082684131784009e-01  -1.0343546884247408e-01  -9.6406212400226024e-02  -1.3413192889904757e-01  -1.3475336089607698e-01  -1.3315752330908162e-01  -1.3390379435264557e-01  -1.3061529531008539e-01  -1.3291784944003276e-01  -1.2826779509961292e-01  -1.2927731651228364e-01  -1.2541318868543966e-01  -1.2546528637031709e-01  -1.3187003828755767e-01  -1.3342545287139643e-01  -1.2918010846812084e-01  -1.2982038372437829e-01  -1.2608999293588152e-01  -1.2638190212440079e-01  -1.2319954225908433e-01  -1.2349968389078908e-01  -1.2057852629270681e-01  -1.2151359160570306e-01  -1.1904775212840220e-01  -1.2078801354148525e-01  -1.1854209181478585e-01  -1.2127078392055095e-01  -1.2221197825081906e-01  -1.2253309972361373e-01  -1.1945357575517981e-01  -1.2055107952465603e-01  -1.1787731205765710e-01  -1.1987156717832696e-01  -1.1729843928345630e-01  -1.2035513332439363e-01  -1.2954271234136167e-01  -1.2705482624035822e-01  -1.2086387428371861e-01  -1.2037884078062286e-01  -1.2866673971079395e-01  -1.2579859953611167e-01  -1.1918810065673344e-01  -1.2290316506688234e-01  -1.2043504038875920e-01  -1.2525002167566110e-01  -1.2227111958922932e-01  -1.1791515528731623e-01  -1.2192614125509925e-01  -1.1909072560059390e-01  -1.2434036247047606e-01  -1.2106981365596357e-01  -1.2876869826874715e-01  -1.2671430557550428e-01  -1.1986316495624071e-01  -1.1760446194749641e-01  -1.2120740826898208e-01  -1.1818381053903936e-01  -1.2160774714510271e-01  -1.1244590596165968e-01  -1.1710114221237426e-01  -1.1389826813029735e-01  -1.1874993074117232e-01  -1.1413496651279501e-01  -1.0746083399977072e-01  -1.1474025926334840e-01  -1.2771188198152986e-01  -1.1990277345502087e-01  -1.1618281720158688e-01  -1.0613469394812747e-01  -1.2735334992178260e-01  -1.1731752356594112e-01  -1.1924956156157795e-01  -1.1450391437509887e-01  -1.2028639702436249e-01  -8.5533386164540842e-02  -9.1264624566278513e-02  -7.8800518222553684e-02  -9.0790658225762003e-02  -1.1046959883704520e-01  -1.1784245017004574e-01  -9.2253356619221613e-02  -1.2903241664845583e-01  -3.5494210576631359e-02  -1.0030583449338132e-01  -1.2968691964363427e-01  -1.1124977883994354e-01  -7.4290440831720650e-02  -8.3465631296210513e-02  -1.1229011415607550e-01  -1.1455781891456561e-01  -1.1414885018845636e-01  -1.0281227005663665e-01  -1.1006816606768395e-01  -1.0253080154704615e-01  -1.0744698439107614e-01  -9.9888058232583246e-02  -9.9340387170659114e-02  -9.1898605869710659e-02  -1.0884274425850335e-01  -9.1931992388574066e-02  -8.5904333174812927e-02  -8.4980593107185878e-02  -8.1299564478736042e-02  -8.0935866079461904e-02  -7.8830130627625519e-02  -7.8887523091375256e-02  -1.1155931110817421e-01  -1.1704873275426875e-01  -1.0915256483481300e-01  -1.1704735844184276e-01  -8.7686648458941543e-02  -8.2766848063750731e-02  -9.3579625089433696e-02  -7.9433259123908459e-02  -1.1140557697318527e-01  -1.1412114085947213e-01  -7.1011711640978012e-02  -3.2664425213344103e-02  -3.8680124270866652e-02  -3.5962012746751620e-02  -1.0887901261969433e-01  -1.0218754613053464e-01  -1.2047893467995845e-01  -1.0937519374134064e-01  -1.1054366225387434e-01  -9.4341677203795965e-02  -9.9090440786496356e-02  -9.6297640787582989e-02  -9.5167650058758824e-02  -9.8900108068079834e-02  -1.0410533223423182e-01  -9.6364775583199169e-02  -8.6261634619925337e-02  -8.7736677434788329e-02  -8.8030619655359632e-02  -8.3669219962510574e-02  -8.0671789722325110e-02  -8.0951895690260234e-02  -7.3601739430164195e-02  -7.8549581188768369e-02  -7.8379216920828110e-02  -7.9878959909363126e-02  -7.7099210450161951e-02  -8.2941282927172552e-02  -7.6585677725769574e-02  -8.6505918962199030e-02  -8.5696069013062828e-02  -9.2142245197067499e-02  -9.0566474627975971e-02  -1.0004729606399110e-01  -9.4020633078596191e-02  -1.0940302403268569e-01  -9.5813793996672239e-02  -1.1272280827279159e-01  -1.0520144037295498e-01  -1.1132242186872553e-01  -1.0328091520341248e-01  -1.2984258727823242e-01  -1.1942739192931941e-01  -7.6922820902294464e-02  -8.7044657305325263e-02  -1.0546828213045002e-01  -1.0361292232463702e-01  -1.1838972673218282e-01  -7.8205611267445518e-02  -1.2583302580915989e-01  -7.0442006725149872e-02  -9.2582989621509973e-02  -8.3582149507026623e-02  -1.0585474892188490e-01  -9.0219995748596418e-02  -1.1135317501611290e-01  -7.5358845591824861e-02  -1.0716024340488077e-01  -1.0816665008607468e-01  -9.2874773067096475e-02  -8.7941523747518957e-02  -1.0121866203445889e-01  -8.0573978517140682e-02  -7.6692298736366848e-02  -8.6093021522537477e-02  -9.2291003549353393e-02  -1.05491193