<?xml version="1.0"?>
<VTKFile type="UnstructuredGrid"  version="0.1"  >
<UnstructuredGrid>
<Piece  NumberOfPoints="1297" NumberOfCells="2496">
<Points>
<DataArray  type="Float64"  NumberOfComponents="3"  format="ascii">0 0 0  0 1 0  1 1 0  1 0 0  1.1 -0.1 0  -0.1 -0.1 0  1.1 1.1 0  -0.1 1.1 0  0.2357664656338397 0.7086323542249819 0  0.2355749663172431 0.2916949632709286 0  0.76443159203306 0.2912150133933455 0  0.7645290959973681 0.7083350626197523 0  0.4999660465974659 0.4999049826589028 0  0 0.9499999999997918 0  0 0.8999999999995836 0  0 0.8499999999996529 0  0 0.7999999999999998 0  0 0.7500000000003466 0  0 0.7000000000006934 0  0 0.6500000000010401 0  0 0.6000000000013869 0  0 0.5500000000017335 0  0 0.5000000000020587 0  0 0.4500000000018723 0  0 0.4000000000016644 0  0 0.3500000000014564 0  0 0.3000000000012483 0  0 0.2500000000010403 0  0 0.2000000000008322 0  0 0.1500000000006241 0  0 0.100000000000416 0  0 0.05000000000020799 0  0.04999999999989965 0 0  0.09999999999981467 0 0  0.1499999999997036 0 0  0.1999999999995579 0 0  0.2499999999994121 0 0  0.2999999999992664 0 0  0.3499999999991206 0 0  0.3999999999989749 0 0  0.4499999999988292 0 0  0.4999999999986943 0 0  0.5499999999988151 0 0  0.5999999999989468 0 0  0.6499999999990784 0 0  0.69999999999921 0 0  0.7499999999993417 0 0  0.7999999999994734 0 0  0.8499999999996051 0 0  0.8999999999997368 0 0  0.9499999999998684 0 0  1 0.04999999999989965 0  1 0.09999999999981467 0  1 0.1499999999997036 0  1 0.1999999999995579 0  1 0.2499999999994121 0  1 0.2999999999992664 0  1 0.3499999999991206 0  1 0.3999999999989749 0  1 0.4499999999988292 0  1 0.4999999999986943 0  1 0.5499999999988151 0  1 0.5999999999989468 0  1 0.6499999999990784 0  1 0.69999999999921 0  1 0.7499999999993417 0  1 0.7999999999994734 0  1 0.8499999999996051 0  1 0.8999999999997368 0  1 0.9499999999998684 0  0.9499999999997918 1 0  0.8999999999995836 1 0  0.8499999999996529 1 0  0.7999999999999998 1 0  0.7500000000003466 1 0  0.7000000000006934 1 0  0.6500000000010401 1 0  0.6000000000013869 1 0  0.5500000000017335 1 0  0.5000000000020587 1 0  0.4500000000018723 1 0  0.4000000000016644 1 0  0.3500000000014564 1 0  0.3000000000012483 1 0  0.2500000000010403 1 0  0.2000000000008322 1 0  0.1500000000006241 1 0  0.100000000000416 1 0  0.05000000000020799 1 0  -0.1 1.05000000000004 0  -0.1 1.000000000000079 0  -0.1 0.9500000000001624 0  -0.1 0.9000000000003032 0  -0.1 0.850000000000444 0  -0.1 0.8000000000005848 0  -0.1 0.7500000000007256 0  -0.1 0.7000000000008665 0  -0.1 0.6500000000010508 0  -0.1 0.6000000000012352 0  -0.1 0.5500000000014196 0  -0.1 0.500000000001539 0  -0.1 0.4500000000014195 0  -0.1 0.4000000000013 0  -0.1 0.3500000000011588 0  -0.1 0.3000000000010178 0  -0.1 0.2500000000008986 0  -0.1 0.2000000000007579 0  -0.1 0.1500000000006174 0  -0.1 0.1000000000005272 0  -0.1 0.05000000000040083 0  -0.1 2.671196597248127e-13 0  -0.1 -0.0499999999998666 0  -0.0500000000000906 -0.1 0  -1.730560139634463e-13 -0.1 0  0.04999999999975802 -0.1 0  0.09999999999961506 -0.1 0  0.1499999999994613 -0.1 0  0.199999999999302 -0.1 0  0.2499999999991446 -0.1 0  0.2999999999990088 -0.1 0  0.3499999999988296 -0.1 0  0.3999999999986936 -0.1 0  0.4499999999985143 -0.1 0  0.4999999999984002 -0.1 0  0.5499999999985247 -0.1 0  0.5999999999986493 -0.1 0  0.6499999999987955 -0.1 0  0.6999999999989417 -0.1 0  0.7499999999990659 -0.1 0  0.7999999999992116 -0.1 0  0.8499999999993573 -0.1 0  0.8999999999994526 -0.1 0  0.949999999999584 -0.1 0  0.9999999999997226 -0.1 0  1.049999999999861 -0.1 0  1.1 -0.0500000000000906 0  1.1 -1.730560139634463e-13 0  1.1 0.04999999999975802 0  1.1 0.09999999999961506 0  1.1 0.1499999999994613 0  1.1 0.199999999999302 0  1.1 0.2499999999991446 0  1.1 0.2999999999990088 0  1.1 0.3499999999988296 0  1.1 0.3999999999986936 0  1.1 0.4499999999985143 0  1.1 0.4999999999984002 0  1.1 0.5499999999985247 0  1.1 0.5999999999986493 0  1.1 0.6499999999987955 0  1.1 0.6999999999989417 0  1.1 0.7499999999990659 0  1.1 0.7999999999992116 0  1.1 0.8499999999993573 0  1.1 0.8999999999994526 0  1.1 0.949999999999584 0  1.1 0.9999999999997226 0  1.1 1.049999999999861 0  1.05000000000004 1.1 0  1.000000000000079 1.1 0  0.9500000000001624 1.1 0  0.9000000000003032 1.1 0  0.850000000000444 1.1 0  0.8000000000005848 1.1 0  0.7500000000007256 1.1 0  0.7000000000008665 1.1 0  0.6500000000010508 1.1 0  0.6000000000012352 1.1 0  0.5500000000014196 1.1 0  0.500000000001539 1.1 0  0.4500000000014195 1.1 0  0.4000000000013 1.1 0  0.3500000000011588 1.1 0  0.3000000000010178 1.1 0  0.2500000000008986 1.1 0  0.2000000000007579 1.1 0  0.1500000000006174 1.1 0  0.1000000000005272 1.1 0  0.05000000000040083 1.1 0  2.671196597248127e-13 1.1 0  -0.0499999999998666 1.1 0  0.2316563757233858 0.6826808893947377 0  0.2288915748415074 0.6563111401241616 0  0.2265721252235791 0.6299313632851489 0  0.2246384576449659 0.6037183879763707 0  0.2230489486406945 0.5776781554373246 0  0.2217968150213224 0.5517695099776623 0  0.2209143956220448 0.5259478689254753 0  0.2206979514866928 0.500119850371563 0  0.2209842388527473 0.4743074420932636 0  0.2217354163283722 0.4484602748373773 0  0.222933561465855 0.4225642285227399 0  0.2245627102035927 0.3965994763538742 0  0.2265349182138694 0.3705000077905582 0  0.2288119290593627 0.3441400652905365 0  0.2315038668945401 0.3177368366617697 0  0.2616522529952151 0.288776894925207 0  0.2882257450743349 0.2870428164744571 0  0.3148774708712088 0.2856441570077537 0  0.3414731193143598 0.2844026382564565 0  0.3679985448368222 0.2833351326107179 0  0.39446224868521 0.2824348999606942 0  0.4208686632639669 0.2816931662090927 0  0.447235168631427 0.2810627142676303 0  0.4735968826321105 0.2807356760696622 0  0.4999323433384705 0.2806189566202522 0  0.5262683070522628 0.2807308600983375 0  0.5526234808998309 0.2810471693082316 0  0.579015424228431 0.2815264895372293 0  0.6054406476507297 0.2822535890338518 0  0.6319589025880169 0.2830405427537976 0  0.6585239254471529 0.284034370246946 0  0.6851167935955742 0.2852529998645189 0  0.7117550889814283 0.2866616415454655 0  0.7383253461824562 0.288347465152808 0  0.7684410517837974 0.3171869478688853 0  0.7712072436983683 0.3435861414805128 0  0.7734656075525996 0.3699817652756741 0  0.7753414071220809 0.3961888037141739 0  0.7768688295436174 0.4222217140359799 0  0.778017544947456 0.448131600117195 0  0.7786896207269765 0.4739586643180118 0  0.7788289915461398 0.4997291343815717 0  0.7783911283042947 0.5254729887485436 0  0.7776335866514162 0.5512380190240334 0  0.7765436216664497 0.5771334254800412 0  0.7750387038685904 0.6031358578350487 0  0.773388930928162 0.6294244314233162 0  0.7712190974955049 0.6558723289330818 0  0.7685247993920041 0.6823235319365815 0  0.7384248980115844 0.7112437010387935 0  0.7118572473556093 0.712939083896944 0  0.6852596860231018 0.7144164822228664 0  0.6586670887822723 0.7156758843011755 0  0.6321111286523695 0.716725689908452 0  0.6055794030512081 0.7175354649701957 0  0.5791539250179096 0.7182618195349363 0  0.5527769934825246 0.7187425436110791 0  0.5264419854426007 0.719035126873413 0  0.5001321991081271 0.7191358885021661 0  0.4738166993014579 0.7190593059210491 0  0.4474821746161397 0.7187267496593571 0  0.4211293955823655 0.7181616833189521 0  0.394697481814783 0.7175153513420692 0  0.3681977861159307 0.7166913622153106 0  0.34166989276535 0.7156550417951945 0  0.3150682747312498 0.7144821727776297 0  0.2884161979695525 0.7131216711376294 0  0.2618499693284631 0.7114483251134907 0  0.3537278526554115 0.3077979328575126 0  0.2472083509224452 0.4351009665320162 0  0.3538962749572037 0.6922437187216047 0  0.2472786959850988 0.5651454294298098 0  0.7529173992763092 0.5902501773761906 0  0.6195948683594309 0.6942737662041841 0  0.6450835769557226 0.3070115575694312 0  0.7543001927015348 0.4339116025735611 0  0.7542962497662226 0.5120010162425193 0  0.5654906683495069 0.3035398953971735 0  0.4346656804314918 0.3056599401788664 0  0.4333349883496379 0.6946301502059199 0  0.539853763425948 0.695576631992511 0  0.2458935272873538 0.4871171090545505 0  0.2480740869817048 0.3826776686018489 0  0.4868819869214078 0.3070741851645712 0  0.2546842962086138 0.6156186593300177 0  0.7454672914609798 0.3799969038409794 0  0.4868688074635465 0.6957306007289513 0  0.6732435392535574 0.6915473382364312 0  0.2993696089455794 0.3123208601217389 0  0.7010065820561613 0.3133949958003852 0  0.3004508487094821 0.6901661161117415 0  0.747152003406616 0.6452434444175142 0  0.2536494098311906 0.3301249505550116 0  0.2566820341640748 0.668450770194046 0  0.7267849640131989 0.688856877335868 0  0.7472381546665747 0.3289468775078048 0  0.327146748915526 0.6912445570129681 0  0.3398778669166743 0.6683410180294027 0  0.3664203986991895 0.6689226262760184 0  0.3519374050813814 0.6448767685765133 0  0.379579140654782 0.6452314849316853 0  0.3640416017709605 0.6184464770620347 0  0.3969815834183379 0.6187783488491452 0  0.3782999196402974 0.5867280098480943 0  0.3316336823566824 0.6173743344020742 0  0.4182899032698316 0.5864696144042507 0  0.395130688316977 0.5497691472414892 0  0.3486112391251683 0.5559937156000185 0  0.3685583374414917 0.5148819000048092 0  0.324909791633874 0.5173100169858575 0  0.3400183041153846 0.4808330713788562 0  0.386044027429369 0.4755131718597995 0  0.3612570099649394 0.4412293543506449 0  0.4033799972783703 0.436202303290918 0  0.3795336879440006 0.4038047192040742 0  0.4183303223580957 0.392508486393038 0  0.3394342090290551 0.4043474533236902 0  0.3899082840655637 0.3702075275768433 0  0.428991124637953 0.6204273231058479 0  0.459164514986767 0.594117759344872 0  0.4808423997292998 0.6205516091280445 0  0.5025527638191271 0.5955951769078385 0  0.5232834096344016 0.620751234938263 0  0.544890430834693 0.5962041395628324 0  0.5651980023724131 0.6218529780546423 0  0.5866473696640812 0.5976928178158306 0  0.6076247519538829 0.6263115757075318 0  0.6278330503151076 0.592556463300584 0  0.6088285709922985 0.5569
[...]
<PointData  Scalars="u"> 
<DataArray  type="Float64"  Name="u"  format="ascii">-7.5419611425282795e-20  4.7140911544548834e-19  7.8680325998424939e-20  -3.6446838295110295e-18  1.7402298483604329e-19  -5.0296315377248659e-20  -3.4021586003969732e-20  -2.3856623974330927e-20  -9.2374638495348937e-02  -9.2309002166368809e-02  -9.2386584469766608e-02  -9.2518092493792087e-02  1.3222509510753255e-01  3.5947234274637828e-18  -2.8912663229278065e-18  -1.1970263030473395e-17  -1.4071072495549445e-17  1.1036690264937341e-18  -2.9427161756117698e-17  -2.3337801932198411e-18  -9.1449085257042448e-18  -5.3990167291152429e-18  -1.9493852554230465e-17  -2.2648783406778320e-17  2.2783783554693327e-17  2.1641083246504726e-18  -2.4848603452305981e-18  1.1037554621640874e-17  -2.1357476275580194e-17  1.4279825754387011e-17  8.8714034594677268e-19  -8.5457776871702650e-18  6.4687578296849557e-19  1.3444644418648312e-17  -4.5828319577941764e-18  -1.0953906662941673e-17  -1.7591864966458787e-17  1.2723454901345972e-17  -3.5363195752877053e-18  3.8533784566092571e-18  6.0436848954953348e-19  -6.7849987485782569e-18  -1.5982041297373713e-18  -2.2426711671971499e-17  -6.4273164613050723e-18  -5.5027166260698862e-18  -3.4196836186409373e-18  -1.3778209579377556e-17  -6.0977743727263804e-18  1.5223637771571510e-17  4.3217058634273958e-18  8.0198452163557007e-19  -9.6577717285734954e-18  -1.0227036373714782e-17  9.2566881536185194e-18  -3.1271410762841196e-18  -6.5116540208227616e-18  8.4459936270361453e-18  -1.8276542762355334e-17  -5.3760927867942933e-18  7.9097819410893937e-19  -9.8164882825486352e-18  -9.6363393759221391e-18  -9.3707313711002103e-19  -6.4417894895357166e-18  3.7343709225104809e-18  -1.2351263355334048e-18  -1.6276071598442128e-17  -1.9759994836656308e-17  -8.9470604246585843e-18  8.2123997933570012e-19  5.0054207516761066e-18  -3.7679172921603100e-18  -6.2715393411393150e-18  7.5798720989191013e-19  -2.4409745272957206e-18  -5.0750138998357013e-18  -1.0378773329722815e-17  -8.7336078580472675e-18  -2.5099000388761832e-17  -1.8291967901433415e-17  5.4938828196915724e-18  -1.5434139424873640e-18  -3.8889991679504600e-18  -2.3209092283932460e-18  -4.8808485904388257e-18  6.6750236085602433e-19  -5.5231412096028997e-18  -5.4982875890215690e-18  -7.1862701330298167e-20  2.1992339029391853e-19  2.2408405259593343e-19  -3.2732640522415616e-19  -2.3234345463887229e-18  -3.0259829142954225e-19  -7.4125980313874213e-19  -2.8190033759351124e-18  -1.5127076025503021e-18  -6.0833989498243275e-19  -9.8720663561317368e-19  -2.4960288793057292e-18  -2.2058277044670408e-18  1.8927544875406984e-18  9.4028944697624244e-19  1.0687067560291875e-20  1.1305124594298968e-19  -1.4707778308615821e-18  7.3444602125204991e-19  6.0422696492947924e-19  -1.1016174936221213e-18  -2.4051575710357546e-19  1.3006049640124945e-19  3.8379512875935749e-20  -2.3107039100755397e-19  5.3125933980592464e-19  1.2962088218011026e-18  -1.3148732839747603e-19  -2.1036149252776950e-18  -1.4857247033058970e-18  1.7724953508384751e-19  3.3227863292487777e-19  2.0828968410649481e-19  -9.6023078078270112e-20  -1.9839274466087108e-19  -8.7428960561469707e-19  -1.6694254014514261e-18  -1.4011836630884137e-18  -4.5711920236472177e-19  -9.2512963399890090e-19  -1.5632321271804115e-18  -2.5460692334682007e-19  1.6784371693322827e-18  1.0044181615649052e-18  -5.2392431348277820e-19  -7.8259380450953149e-20  -1.2329312640085638e-19  -2.6106550313224001e-19  -1.4752514962049893e-19  -1.4962214954886644e-18  -1.1315163515409316e-18  7.8717793503026575e-19  -3.2166032879215434e-19  -3.0992495925052044e-19  2.5494399299336400e-19  -1.5081341269525218e-18  -1.2271743998475567e-18  1.9301725299627757e-20  -1.2605724763544371e-18  -1.3384404491047446e-18  -5.5297709196868537e-19  -3.7121828401696591e-19  2.6899460513555858e-19  -2.0152076333955225e-19  -2.3065432123199885e-18  -2.7843935793777385e-18  -1.3078767943564611e-18  -6.1388003934655461e-20  8.3513508768608198e-20  -2.7572508311541346e-22  -6.4268386751349434e-20  3.2891856225607753e-19  2.8009360927281624e-19  -2.1570791874474672e-19  -2.0508908608101168e-18  -5.7518819310384583e-19  -2.8616589674947989e-20  -7.5995469108201194e-19  -1.8252079837895024e-18  -2.0349556563535454e-18  -3.1747102481983054e-18  -2.5007953008004458e-18  5.6636160938603997e-19  2.5460008048841587e-19  -3.0581257641508134e-19  -4.6901302953862290e-19  -8.0991310997872843e-19  -1.2492969880749743e-19  -6.5643851789615176e-19  -7.5540065051436912e-19  -5.5819890500064517e-20  8.9484244117814588e-20  -8.1876561105898762e-02  -7.0713721012319056e-02  -6.0694625912740496e-02  -5.2430469085118211e-02  -4.6224564833171652e-02  -4.1772085407971581e-02  -3.9231313230324645e-02  -3.8253097349972370e-02  -3.9184796328194861e-02  -4.1838720260811937e-02  -4.6180976386362496e-02  -5.2294283505974870e-02  -6.0464350221776840e-02  -7.0556158204781769e-02  -8.1708620884078764e-02  -8.6746070767051139e-02  -7.8583920512175887e-02  -7.0167400782531059e-02  -6.2742873483446565e-02  -5.6439417327675441e-02  -5.1362639417239252e-02  -4.7336686300922796e-02  -4.4455006469322128e-02  -4.2805787348314694e-02  -4.2201517609962089e-02  -4.2725064412480349e-02  -4.4474039553302938e-02  -4.7139588711476180e-02  -5.1442765151362722e-02  -5.6576448380608040e-02  -6.2801547758422560e-02  -7.0187815096495021e-02  -7.8645544499308162e-02  -8.6793387699836744e-02  -8.1802693342331020e-02  -7.0723641861592149e-02  -6.0698026319999890e-02  -5.2455230978855093e-02  -4.6291048644376595e-02  -4.1819423531739480e-02  -3.9162485651513403e-02  -3.8289245459932564e-02  -3.9102584114168386e-02  -4.1649256146502237e-02  -4.6160165357450308e-02  -5.2334639377303233e-02  -6.0677449445449540e-02  -7.0774625693722795e-02  -8.1904727829138199e-02  -8.6968590217078673e-02  -7.8769761904361010e-02  -7.0377049452571935e-02  -6.2933129530529541e-02  -5.6742474356813406e-02  -5.1572601177036090e-02  -4.7244367561783872e-02  -4.4555706898082158e-02  -4.2778310788727222e-02  -4.2162857248917690e-02  -4.2772616643422585e-02  -4.4454405078129255e-02  -4.7405344285122782e-02  -5.1410323950656679e-02  -5.6474851950564689e-02  -6.2784527013957300e-02  -7.0235290442339504e-02  -7.8622297506332289e-02  -8.6787603886744849e-02  -1.4547013006592406e-02  -2.1111106607162086e-03  -1.4560126765589742e-02  -2.2517979593012151e-03  -1.0120738563812131e-02  -8.4224261536763028e-03  -1.4690639308693042e-02  -3.8487387757969367e-03  4.1419285434476615e-03  1.3324215664752990e-03  3.5255503834932993e-03  2.8415303539417311e-03  5.1129692626363183e-03  4.5648220805247254e-03  -1.9689940493522372e-02  9.9392287165863871e-03  -1.3953930362750715e-02  -1.6109599088416981e-02  6.6147768453966686e-03  -2.4109296823774749e-02  -3.3643560325436278e-02  -3.2780732610030852e-02  -3.5179892203029355e-02  -3.1614077965426063e-02  -4.5789229889924496e-02  -4.3227872204316266e-02  -4.8030889845294369e-02  -4.6833510547830012e-02  -2.3440060257183010e-02  2.7527729416637788e-03  1.2350143571583365e-02  2.9158346934156310e-02  3.9939560432126542e-02  5.6573754878100756e-02  6.9205857049223135e-02  8.1965291190452705e-02  4.1718911703444168e-02  9.6109815043622232e-02  1.0439571446661726e-01  8.0452951286975202e-02  9.9330973458293795e-02  7.3485672141273703e-02  8.2993409978878455e-02  1.0641545084308131e-01  8.6224505734282100e-02  1.0245552070205236e-01  7.7458467966557282e-02  8.3865366798318824e-02  5.8532608970028724e-02  5.7983296242201735e-02  7.6682185415363716e-02  1.0034424755040411e-01  8.3595262631321221e-02  1.0224170160178045e-01  8.3013898925960963e-02  9.8452511736523390e-02  7.6446124090491827e-02  8.8426302113866456e-02  6.1706293064556952e-02  7.6189987209552779e-02  1.0042144868975644e-01  8.0224024276691910e-02  1.0000699960083061e-01  5.6065207112642859e-02  5.4388948318599174e-02  4.2038597920405534e-02  4.7326991025148549e-02  5.4770404429809960e-02  4.2366351331400022e-02  6.1350360562780266e-02  8.6302214186512072e-02  2.0393696690489915e-02  3.5351405525311977e-02  5.1262058687579409e-02  4.5161841043307192e-02  5.7942716705879325e-02  8.9160021530771030e-02  5.4742735994791236e-02  8.2245999553028110e-02  1.0897766224454544e-01  9.4224537365770231e-02  7.0556563643058262e-02  7.5672656130735275e-02  1.0470698794142748e-01  7.9514375457169981e-02  5.5653157146934140e-02  5.5402089141823069e-02  7.1270095978726883e-02  3.4129371808077846e-02  2.8845258011253601e-02  8.9609478945958075e-03  8.3830083343619365e-03  1.1671693565372586e-01  2.8700813917206983e-02  3.0243787705150058e-02  2.4809719245387288e-02  4.1997124649199143e-02  7.4223075966132080e-03  1.6348725025087116e-03  1.7446159806775226e-02  5.1403047538442277e-02  2.8561152797416414e-02  1.7772735566453861e-02  3.5214065574668808e-02  6.0454803307241782e-02  3.7411507865379598e-02  3.1335027339668829e-02  5.6522403492211673e-02  3.4675832316676980e-02  1.3598190802146708e-02  5.0194487200484932e-03  1.7694465213363930e-02  2.2783418763619893e-02  3.1877174580844769e-02  1.3359547149250703e-02  5.3065790481855030e-02  1.2035462316852986e-01  1.2225203731484500e-02  1.2042729849170231e-01  7.5083515793430422e-02  4.6779671819956799e-02  7.0435382213754866e-02  4.4355090541269855e-02  2.4534959067511384e-02  2.0002713611503586e-02  3.4073571875848280e-02  5.0833543559002312e-02  3.2314000870553007e-02  2.9862882015279424e-02  1.0863057639404262e-01  -1.1482233647559684e-02  -1.4015877249075596e-02  4.7045527682672082e-02  2.2159953128631584e-02  2.7434883612351930e-02  4.2634880703060471e-02  3.2580706444128679e-02  1.1396740471098447e-02  2.9846377203670577e-02  1.2051062824899018e-02  9.5731235053306742e-03  -7.9438541859054614e-03  -2.3683824829617135e-02  -2.2530712869393555e-02  2.4694322950484092e-02  7.1201881374384733e-03  4.8728499002411900e-03  -7.4980612758658990e-03  -2.7135768880474885e-02  -3.1356142695405098e-02  -1.1760587324822827e-03  2.5292701313119670e-02  4.7482148617654089e-02  -1.5157214776070243e-02  -7.0307549799322770e-03  2.0632657301985395e-03  -2.3732339956834908e-02  3.5378832690396555e-03  6.5407236273560066e-03  -7.8468107448954362e-03  -3.0948811163137090e-02  -7.7133829378606680e-03  5.6379320561377178e-03  -8.8606413032317130e-03  1.3235690257239294e-02  -2.4768964154776611e-03  1.6454560523392101e-02  1.5195933557008248e-03  -1.6449661146448222e-02  -3.5372599922506992e-02  -2.5441653653758049e-02  8.4658582896810757e-03  3.6532203513409758e-02  -9.8867752192131411e-03  -7.6387807315528152e-03  3.5843789510968164e-03  -4.7705819783488562e-02  -4.8105313188704001e-02  -4.6480944794972855e-02  -4.8211321364574088e-02  -9.0523545806411691e-04  1.0989295279625974e-01  1.2375826417183262e-01  2.5820986911405774e-02  -8.2091991957223467e-03  -1.0680173040391865e-02  -8.5777079519522691e-03  -3.2723745315156497e-02  3.7812718787623083e-03  1.3295383542559751e-04  3.1196739057812381e-02  4.6038338559050054e-02  5.7841053604507555e-03  4.8497811863063171e-02  1.1813315144922523e-01  1.1694878599808840e-01  9.1991485087422761e-02  1.6858681136993188e-02  8.6832536896017706e-04  2.8341602097947623e-02  1.8003413018471449e-02  2.7827816631925496e-02  1.6075015795757063e-03  2.2571441059742597e-03  1.1421085896894950e-01  -1.2653629008964674e-02  2.4996783229781053e-02  1.6790611285016462e-02  5.4520474107806326e-02  4.3035236418313650e-03  5.0599268080500602e-02  9.1987614656575581e-02  -1.3474014190179252e-03  1.2657846228085945e-01  6.3630159591509486e-02  -3.0294750556048237e-02  4.7512757209417188e-02  2.6526195143067279e-02  2.1569150147649478e-02  1.1086431640523191e-01  -7.5062179805921890e-04  9.2761936607309980e-03  2.7316014891412461e-02  1.2884826284085518e-01  1.7832303279701089e-02  2.6016371610052755e-02  1.2390103625974670e-01  6.0311706525449177e-02  2.9255699503547526e-02  1.2841199775831161e-01  5.1657433364963361e-02  1.2391059421511311e-02  5.5780175042458996e-03  3.4829122691466978e-02  6.0197344677496475e-02  2.5322699330045807e-02  -2.5035490166520143e-03  4.8327781444657540e-02  -5.9041435190613174e-02  -5.9167101078938272e-02  -5.9165344005449448e-02  -5.9284924109232716e-02  9.4669980566097819e-03  -1.2761235629617554e-02  1.3900391031995743e-02  -1.4076701601649381e-03  2.2386858077059570e-02  6.3839946804860728e-02  -9.7192670700550227e-03  3.7141165277008868e-03  3.7630104584127036e-02  7.1120050436714835e-02  5.9064461227028790e-02  7.4062562823414488e-02  8.8564890364919210e-03  7.1296086921973145e-02  2.6718337957042891e-02  7.8591728910678962e-02  1.2700736951475308e-01  3.3025468106501574e-02  5.6035431148364935e-02  3.9336358683437302e-02  2.6928355019539652e-02  6.6810441287882494e-02  7.0608564275435340e-02  1.1933709866543932e-01  -2.3012563394317745e-02  -7.1427780258206869e-02  -7.1837510614293540e-02  -8.1399901586682699e-02  -9.8364821856049459e-02  -8.1828026969253051e-02  -9.9170309876786392e-02  -7.1707228301127759e-02  -8.0943105825915657e-02  -7.1664972868450638e-02  -8.1313933669497310e-02  -9.8320846134650683e-02  -9.8395708509015120e-02  -4.8137034687312154e-02  -4.2121056227627254e-02  -5.2392218390280777e-02  -4.4411313937087644e-02  -6.4747476049511171e-02  -8.6785861744731976e-02  -8.6776926870918314e-02  -6.4414275176504818e-02  -1.0520086589497712e-01  -1.1374599181593167e-01  -6.7700202525622810e-02  -6.7523400154456958e-02  -9.5456628030911969e-02  -1.1230039966439695e-01  -1.2005163743024116e-01  -1.2164211807391782e-01  -1.2676208429196348e-01  -1.2847080797390145e-01  -4.8939033409555299e-02  -4.6971595425232000e-02  -4.8564689193462705e-02  -4.7163771706403068e-02  -4.3430707977327884e-02  -4.1560093100679832e-02  -4.4846038122673716e-02  -1.3157721596465843e-01  -1.3323726745462974e-01  -1.1783627570324305e-01  -1.1031018793314823e-01  -3.6418198479112797e-02  -3.9324139232493102e-02  -3.7502671139716844e-02  -3.2342590853051252e-02  -3.4836541681606263e-02  -3.2151139732810405e-02  -4.2016561135175705e-02  -4.2801392345461153e-02  -1.1382913678641775e-01  -1.0712141655276343e-01  -4.9431310371765569e-02  -4.3195467737713225e-02  -4.9577980514054036e-02  -1.1089719793662023e-01  -1.1507237261392965e-01  -1.1988698439811928e-01  -1.2354931932149277e-01  -1.2815872369892387e-01  -1.2983453353182950e-01  -1.2433788472245053e-01  -1.3320765812021249e-01  -1.3206317540911844e-01  -1.3132645722979799e-01  -1.1096647572629904e-01  -1.1545427518005466e-01  -1.2001272485474715e-01  -1.2362773075520499e-01  -1.1859869541426786e-01  -1.2821780558979626e-01  -1.2975519530945243e-01  -1.3318859491108553e-01  -1.3208918137577771e-01  -1.3145508655092708e-01  -7.8521567363078346e-02  -1.0500154946573383e-01  -1.1361284527014601e-01  -1.1217584382359311e-01  -1.1996246808170988e-01  -1.2150111319723136e-01  -1.2660193466883227e-01  -1.2835171158366113e-01  -1.3139509628077806e-01  -1.3323083263074892e-01  -6.2485001440138035e-02  -6.2959589281723446e-02  -7.2631418792803160e-02  -7.2801656326467276e-02  -1.2366316063364267e-01  -1.3349499701428041e-01  -1.3287306619039516e-01  -1.3207612091011608e-01  -1.3361613961627428e-01  -1.3293907491725934e-01  -4.6405317242041312e-02  -1.3257575354542328e-01  -1.3303858194334969e-01  -1.3214509369955110e-01  -1.3275685775899579e-01  -1.3314323590984312e-01  -1.2779139318289273e-01  -7.7813134345310717e-02  -1.2773660372817117e-01  -1.2813713145488523e-01  -4.1307012931853307e-02  -3.7737617183516890e-02  -4.0959014484689221e-02  -1.2671241878223469e-01  -1.2747989533879522e-01  -1.0423997723002870e-01  -9.8348700025815125e-02  -1.2992995375164054e-01  -1.3115763381499537e-01  -1.2984349403432646e-01  -1.3117712883853438e-01  -1.2710883128439607e-01  -1.3024130733838021e-01  -1.2492432971846600e-01  -1.2674025716169471e-01  -1.2229085785610473e-01  -1.2287861874154407e-01  -1.2743289105981451e-01  -1.2988853650916593e-01  -1.2479319324034133e-01  -1.2619902417136258e-01  -1.2184742732669276e-01  -1.2271970830480460e-01  -1.1916972759317056e-01  -1.1983008923242054e-01  -1.1674829098212135e-01  -1.1786905437525977e-01  -1.1534228063433470e-01  -1.1715413351371763e-01  -1.1485755635342910e-01  -1.1762550273236191e-01  -1.1935834791180737e-01  -1.1998660970247645e-01  -1.1684202775305109e-01  -1.1805449509524013e-01  -1.1541687724944787e-01  -1.1740237554428586e-01  -1.1486954018881626e-01  -1.1787167876959478e-01  -1.2562636321334258e-01  -1.2381927884723977e-01  -1.2112592998602323e-01  -1.2127155198822236e-01  -1.2554292510662085e-01  -1.2328702852483103e-01  -1.1541256625939547e-01  -1.1922342387549309e-01  -1.1645900573327467e-01  -1.2150661109780610e-01  -1.1801164360251462e-01  -1.1538180126046080e-01  -1.1938213984706450e-01  -1.1632206639996824e-01  -1.2168658950379775e-01  -1.1799428119474442e-01  -1.2735796876241520e-01  -1.2451226299728102e-01  -1.1824677495475794e-01  -1.1520934167196244e-01  -1.1894455359562403e-01  -1.1479532586570775e-01  -1.1839980019947859e-01  -1.0987352592179334e-01  -1.1288592162150048e-01  -1.1029067807723865e-01  -1.1356765908332350e-01  -1.1168102878570410e-01  -1.0378264901702253e-01  -1.1126016847877117e-01  -1.2299574710603858e-01  -1.1477632720094280e-01  -1.1227351370087010e-01  -1.0374913468909232e-01  -1.2365715718996982e-01  -1.1306381784249252e-01  -1.1725234098700262e-01  -1.1130795184134232e-01  -1.1731947625427397e-01  -8.7286463591660271e-02  -9.1577437111604751e-02  -8.2071018093584344e-02  -9.3609595943763155e-02  -1.0727122750880141e-01  -1.1518984558282873e-01  -8.8746880294071587e-02  -1.2677391307731706e-01  -3.3458768322607253e-02  -1.0163581323444437e-01  -1.2823022305328677e-01  -1.0798665886167079e-01  -7.8807132150266995e-02  -8.7227692751460431e-02  -1.0782698473811136e-01  -1.1488508960780403e-01  -1.1499953552675102e-01  -1.0378657480230777e-01  -1.1048956689005777e-01  -1.0326388318354958e-01  -1.0789904549898108e-01  -1.0102167813476574e-01  -1.0041491440232911e-01  -9.4135591046481393e-02  -1.0876148371522537e-01  -9.3525136069387796e-02  -8.9090692563997390e-02  -8.7104160169046749e-02  -8.5190806036044217e-02  -8.3269244509320647e-02  -8.3044126492792233e-02  -8.1130017691891543e-02  -1.0934856221905868e-01  -1.1433421279767708e-01  -1.0665598083531592e-01  -1.1506934418060182e-01  -8.9896287977473191e-02  -8.5130969169189039e-02  -9.0631314887184705e-02  -8.3282472653247674e-02  -1.0748897057158001e-01  -1.0946669066459466e-01  -7.6519311635409482e-02  -3.0472574861511861e-02  -3.6554611291951859e-02  -3.3614514427401966e-02  -1.1051013303090795e-01  -1.0418971658426167e-01  -1.1973232856945704e-01  -1.0846994805615499e-01  -1.1057716019169053e-01  -9.1832260182000719e-02  -9.6189266904575646e-02  -9.3649412014169764e-02  -9.5371224903002025e-02  -9.9951606187883693e-02  -1.0481758132977620e-01  -9.7763709278835931e-02  -8.8830429022929661e-02  -9.0330723065918370e-02  -8.9331177628501707e-02  -8.5576907191292642e-02  -8.4478358504712595e-02  -8.3999023205205303e-02  -7.8540121266020738e-02  -8.2492889916666506e-02  -8.0144434549922011e-02  -8.2294915631491938e-02  -8.1574737424306917e-02  -8.5660258111115162e-02  -8.1054513809427201e-02  -8.9404397201593724e-02  -8.7188033889903024e-02  -9.3820659212900309e-02  -9.2921173229279605e-02  -1.0122200822150690e-01  -9.5439481673253224e-02  -1.0959439723487435e-01  -9.6007823364463160e-02  -1.1189160448237674e-01  -1.0322618783111147e-01  -1.0977430786756766e-01  -1.0090321298532848e-01  -1.2671814177555893e-01  -1.1758536174281550e-01  -8.0579369957760674e-02  -8.6263631104525243e-02  -1.0267073623921107e-01  -1.0037927030510417e-01  -1.1744139953280645e-01  -7.8819409269682519e-02  -1.2365370813130032e-01  -7.5871654664020641e-02  -9.0386471147560363e-02  -8.4396975923237041e-02  -1.0646588170631516e-01  -8.9408969486967096e-02  -1.0966186953094649e-01  -7.5926032143246891e-02  -1.0285362860276015e-01  -1.0342353560298427e-01  -8.9949253870828944e-02  -8.8719116573999487e-02  -9.9101359588280799e-02  -8.1588371323359679e-02  -7.7485878955905543e-02  -8.7317065896546503e-02  -9.4111492805975319e-02  -1.0241667788944335e-01  -1.