<?xml version="1.0"?>
<VTKFile type="UnstructuredGrid"  version="0.1"  >
<UnstructuredGrid>
<Piece  NumberOfPoints="1297" NumberOfCells="2496">
<Points>
<DataArray  type="Float64"  NumberOfComponents="3"  format="ascii">0 0 0  0 1 0  1 1 0  1 0 0  1.1 -0.1 0  -0.1 -0.1 0  1.1 1.1 0  -0.1 1.1 0  0.2357542408226463 0.7043788903997437 0  0.2351804028157994 0.2965132891996367 0  0.764632019616043 0.2959465943244994 0  0.7649812550885277 0.7039061496356177 0  0.5000343288415008 0.5001696700861835 0  0 0.9499999999997918 0  0 0.8999999999995836 0  0 0.8499999999996529 0  0 0.7999999999999998 0  0 0.7500000000003466 0  0 0.7000000000006934 0  0 0.6500000000010401 0  0 0.6000000000013869 0  0 0.5500000000017335 0  0 0.5000000000020587 0  0 0.4500000000018723 0  0 0.4000000000016644 0  0 0.3500000000014564 0  0 0.3000000000012483 0  0 0.2500000000010403 0  0 0.2000000000008322 0  0 0.1500000000006241 0  0 0.100000000000416 0  0 0.05000000000020799 0  0.04999999999989965 0 0  0.09999999999981467 0 0  0.1499999999997036 0 0  0.1999999999995579 0 0  0.2499999999994121 0 0  0.2999999999992664 0 0  0.3499999999991206 0 0  0.3999999999989749 0 0  0.4499999999988292 0 0  0.4999999999986943 0 0  0.5499999999988151 0 0  0.5999999999989468 0 0  0.6499999999990784 0 0  0.69999999999921 0 0  0.7499999999993417 0 0  0.7999999999994734 0 0  0.8499999999996051 0 0  0.8999999999997368 0 0  0.9499999999998684 0 0  1 0.04999999999989965 0  1 0.09999999999981467 0  1 0.1499999999997036 0  1 0.1999999999995579 0  1 0.2499999999994121 0  1 0.2999999999992664 0  1 0.3499999999991206 0  1 0.3999999999989749 0  1 0.4499999999988292 0  1 0.4999999999986943 0  1 0.5499999999988151 0  1 0.5999999999989468 0  1 0.6499999999990784 0  1 0.69999999999921 0  1 0.7499999999993417 0  1 0.7999999999994734 0  1 0.8499999999996051 0  1 0.8999999999997368 0  1 0.9499999999998684 0  0.9499999999997918 1 0  0.8999999999995836 1 0  0.8499999999996529 1 0  0.7999999999999998 1 0  0.7500000000003466 1 0  0.7000000000006934 1 0  0.6500000000010401 1 0  0.6000000000013869 1 0  0.5500000000017335 1 0  0.5000000000020587 1 0  0.4500000000018723 1 0  0.4000000000016644 1 0  0.3500000000014564 1 0  0.3000000000012483 1 0  0.2500000000010403 1 0  0.2000000000008322 1 0  0.1500000000006241 1 0  0.100000000000416 1 0  0.05000000000020799 1 0  -0.1 1.05000000000004 0  -0.1 1.000000000000079 0  -0.1 0.9500000000001624 0  -0.1 0.9000000000003032 0  -0.1 0.850000000000444 0  -0.1 0.8000000000005848 0  -0.1 0.7500000000007256 0  -0.1 0.7000000000008665 0  -0.1 0.6500000000010508 0  -0.1 0.6000000000012352 0  -0.1 0.5500000000014196 0  -0.1 0.500000000001539 0  -0.1 0.4500000000014195 0  -0.1 0.4000000000013 0  -0.1 0.3500000000011588 0  -0.1 0.3000000000010178 0  -0.1 0.2500000000008986 0  -0.1 0.2000000000007579 0  -0.1 0.1500000000006174 0  -0.1 0.1000000000005272 0  -0.1 0.05000000000040083 0  -0.1 2.671196597248127e-13 0  -0.1 -0.0499999999998666 0  -0.0500000000000906 -0.1 0  -1.730560139634463e-13 -0.1 0  0.04999999999975802 -0.1 0  0.09999999999961506 -0.1 0  0.1499999999994613 -0.1 0  0.199999999999302 -0.1 0  0.2499999999991446 -0.1 0  0.2999999999990088 -0.1 0  0.3499999999988296 -0.1 0  0.3999999999986936 -0.1 0  0.4499999999985143 -0.1 0  0.4999999999984002 -0.1 0  0.5499999999985247 -0.1 0  0.5999999999986493 -0.1 0  0.6499999999987955 -0.1 0  0.6999999999989417 -0.1 0  0.7499999999990659 -0.1 0  0.7999999999992116 -0.1 0  0.8499999999993573 -0.1 0  0.8999999999994526 -0.1 0  0.949999999999584 -0.1 0  0.9999999999997226 -0.1 0  1.049999999999861 -0.1 0  1.1 -0.0500000000000906 0  1.1 -1.730560139634463e-13 0  1.1 0.04999999999975802 0  1.1 0.09999999999961506 0  1.1 0.1499999999994613 0  1.1 0.199999999999302 0  1.1 0.2499999999991446 0  1.1 0.2999999999990088 0  1.1 0.3499999999988296 0  1.1 0.3999999999986936 0  1.1 0.4499999999985143 0  1.1 0.4999999999984002 0  1.1 0.5499999999985247 0  1.1 0.5999999999986493 0  1.1 0.6499999999987955 0  1.1 0.6999999999989417 0  1.1 0.7499999999990659 0  1.1 0.7999999999992116 0  1.1 0.8499999999993573 0  1.1 0.8999999999994526 0  1.1 0.949999999999584 0  1.1 0.9999999999997226 0  1.1 1.049999999999861 0  1.05000000000004 1.1 0  1.000000000000079 1.1 0  0.9500000000001624 1.1 0  0.9000000000003032 1.1 0  0.850000000000444 1.1 0  0.8000000000005848 1.1 0  0.7500000000007256 1.1 0  0.7000000000008665 1.1 0  0.6500000000010508 1.1 0  0.6000000000012352 1.1 0  0.5500000000014196 1.1 0  0.500000000001539 1.1 0  0.4500000000014195 1.1 0  0.4000000000013 1.1 0  0.3500000000011588 1.1 0  0.3000000000010178 1.1 0  0.2500000000008986 1.1 0  0.2000000000007579 1.1 0  0.1500000000006174 1.1 0  0.1000000000005272 1.1 0  0.05000000000040083 1.1 0  2.671196597248127e-13 1.1 0  -0.0499999999998666 1.1 0  0.2300805798379461 0.6793621491383467 0  0.2261984993945837 0.6534540219891171 0  0.2228315816964249 0.6274445654692083 0  0.2200241490817783 0.601645647823889 0  0.2177005291680036 0.5761165497959172 0  0.2158375150972627 0.5508050327050814 0  0.2145201872558532 0.5256218391118566 0  0.214172891028673 0.5004250562540854 0  0.2145590696780506 0.475249014945088 0  0.2156530064191419 0.4500143303845655 0  0.2173947809186288 0.4247051754242125 0  0.2197156130088173 0.3992805449745894 0  0.2224744715849377 0.3736216352817556 0  0.2257563529171259 0.3476319623899882 0  0.2294976009483593 0.321659535219799 0  0.2607288024948521 0.293057845500802 0  0.2872484301765978 0.2911153045266247 0  0.3139939178866477 0.2895368184755255 0  0.3407236513349801 0.2880715077531805 0  0.3674110798247899 0.286819714987972 0  0.3940179637615375 0.285740533206233 0  0.4205438692721157 0.2848432444840981 0  0.4470111141693723 0.2840794062685701 0  0.4734688861293115 0.2836780061347652 0  0.4998896124245806 0.2835332223149165 0  0.5263083561101384 0.2836802453176105 0  0.5527518579938469 0.2840824393098781 0  0.579247366905086 0.2846826806359999 0  0.6057922049327393 0.2855691347958566 0  0.6324521678937094 0.2865369665533872 0  0.6591713150250158 0.2877080389975885 0  0.6858865014441632 0.2891198077767292 0  0.7126013766104021 0.2906899913261548 0  0.7390813989721786 0.2925527364542748 0  0.7701862276775995 0.3210023385565769 0  0.7741372930400889 0.3469175580911885 0  0.777448146718416 0.3729480357257707 0  0.7801903430014088 0.3987326087205995 0  0.782451819627223 0.424243683760105 0  0.7841951284170395 0.4495660109612254 0  0.7852137921864488 0.4747566161183863 0  0.7854642060322691 0.4998456357842724 0  0.7848713867023687 0.5249004953291067 0  0.7837604304003211 0.5499884060536366 0  0.7821735893171712 0.5752914659587136 0  0.7799522255135886 0.6007548433838719 0  0.7775488889319806 0.626667739329125 0  0.7743686222071154 0.6527775977378432 0  0.7705416704759745 0.6787860388531612 0  0.7394172106020317 0.7073793383563869 0  0.7129208496663472 0.7092573099189667 0  0.6862581507825097 0.7109503584090512 0  0.6595354970283149 0.7124475299064845 0  0.6328312860810309 0.713743743491245 0  0.6061487499007535 0.714785245039986 0  0.5796040385728125 0.7157043591945226 0  0.5531303317641221 0.7163283094519586 0  0.5267171268742713 0.7167141409160047 0  0.5003395619182504 0.7168432989824917 0  0.4739540596546104 0.7167405925136939 0  0.4475402926040131 0.7163156589388351 0  0.4211011776412326 0.7156089762092004 0  0.3945522618010162 0.7147929454055245 0  0.3679076345120184 0.7137736594187893 0  0.3412342763578484 0.7125263971431208 0  0.3145064903721496 0.7111463145657977 0  0.2877745110618516 0.7095983602973335 0  0.2612848461462255 0.7077310068344737 0  0.3527615187352983 0.3111485214345319 0  0.2421653996071275 0.4369111405711245 0  0.3532202999566175 0.6894492585624946 0  0.2423844192036726 0.5639186468253568 0  0.7575793818279383 0.5882510573040099 0  0.6204693661135561 0.6915979794516139 0  0.6459504967833886 0.3103554518044621 0  0.7594415899741683 0.4356208339915992 0  0.7600041003734113 0.5118118925465315 0  0.5658121711723088 0.3064648926535321 0  0.4342550610140601 0.3085629255132412 0  0.4331857948932205 0.69230786597634 0  0.5402474018308531 0.6933442210970995 0  0.240296917567027 0.4877220048317322 0  0.2441551815397893 0.3855425295437475 0  0.4867712262362711 0.3098349685301591 0  0.2511113945734388 0.6133935980699318 0  0.7491469938886174 0.3827848864688402 0  0.4870004446219032 0.6935546983953319 0  0.6745066485895181 0.6884367706498742 0  0.2979838457433373 0.3160457079712064 0  0.7023054619698241 0.3170614447419455 0  0.2994284872686961 0.6869849383418192 0  0.7502770870285453 0.6422684362651592 0  0.2514455969585755 0.3339175567821807 0  0.254811295298893 0.6652713847534933 0  0.7283284427240785 0.6852972651084837 0  0.7492648029506421 0.3326655561460683 0  0.3262878621882731 0.6882561072424943 0  0.3387336397914469 0.6657170748802993 0  0.3655279036688211 0.6664679611687166 0  0.3505635445839873 0.6426315474231824 0  0.3785295525906486 0.6431360371997458 0  0.3624717584081373 0.616644493442939 0  0.3958756017898125 0.6171112343272322 0  0.3766290432311312 0.5854713907192103 0  0.3295575659707928 0.6154298633288854 0  0.4172526389827292 0.5853337434604012 0  0.3935119212662722 0.5491721205533299 0  0.3461244228474323 0.555192003787505 0  0.3662793441124149 0.5148772210723849 0  0.3216513074610111 0.5172359461620399 0  0.3370852004682913 0.4814944213981107 0  0.3841062677383748 0.4762300192868218 0  0.3589444529411874 0.4426063939595737 0  0.4018743306005132 0.4375686976893999 0  0.3778125160917696 0.4057580379339004 0  0.417262936285513 0.3945038855016209 0  0.3370108865861321 0.4064534436561745 0  0.3886115932645569 0.3726103179810131 0  0.4283078813232983 0.618848105658794 0  0.4587440980023492 0.5929474003469248 0  0.4807723285143577 0.6190601055689744 0  0.5027176317710801 0.5944281208066707 0  0.5236999880532897 0.6192463118992413 0  0.5456243283015788 0.5949842543900061 0  0.566106614891873 0.6202425308079484 0  0.5879623469897349 0.5963409275499688 0  0.6090290693097401 0.6244704017113815 0  0.6298217319910049 0.5911185789325529 0  0.610694537
[...]
<PointData  Scalars="u"> 
<DataArray  type="Float64"  Name="u"  format="ascii">-6.0547271432268231e-19  -9.4066892894288986e-19  -3.1406773255721638e-19  -4.4189148212932255e-18  2.2346193189082635e-19  -1.1466325057753585e-20  -2.5205867195832702e-20  4.2481613158954441e-20  -9.0597458542707190e-02  -9.0725579560112068e-02  -9.0768613333428005e-02  -9.0630106004760652e-02  1.3093190843505501e-01  3.3783203190006689e-18  -2.8767302661382854e-20  -1.9405481163273804e-17  -1.6566497162384711e-17  -4.7981218194171455e-18  -2.8986756426250060e-17  6.5006992757192065e-19  -1.1979386693984235e-17  -8.3985011046906952e-18  -2.2624906935943843e-17  -2.5390351448162669e-17  2.2940491147341131e-17  1.8485745223128868e-18  -8.7536558974855222e-18  3.1755290325685615e-18  -2.7975587592500622e-17  1.4912551979690971e-17  2.5520036223667206e-18  -6.0133716038034401e-18  1.1533718852770301e-18  1.2039709841086033e-17  -7.5132739975388436e-18  -9.8560127712327830e-18  -2.0412600406328748e-17  6.7204056814056315e-18  -3.4613866129781721e-18  7.5557366171848596e-18  1.2839422020406905e-18  -7.8608609065142497e-18  -3.1335201800558151e-18  -1.6346538348753818e-17  -6.1425367856026682e-18  -8.0881055646909289e-18  -5.3342138050541253e-18  -1.9104666252184886e-17  -7.5309284577931957e-18  1.5385021983928636e-17  9.0430355400093541e-18  0.0000000000000000e+00  -1.0317849499075263e-17  -1.5909402889768496e-17  7.5831023086555432e-18  -5.7086578442448354e-18  -7.4189841471821999e-18  5.1833059153355528e-18  -2.7484492386570597e-17  -7.0471109072145571e-18  -3.0581729825434058e-18  -1.0871569387769699e-17  -1.0820009792921577e-17  -1.7970044231557633e-18  -7.9482073810383495e-18  1.1105359600203964e-18  -7.5151097791175390e-18  -1.2067677501843351e-17  -1.9603848413922779e-17  -8.4075811003750698e-18  -2.4504493525034674e-18  1.8622165972696431e-18  -1.0353250211353215e-18  0.0000000000000000e+00  -7.8279271260333460e-18  -3.3386066761449823e-18  -6.2879440857615799e-18  -7.8569142670552573e-18  -1.9851198120382241e-17  -2.2120990995951816e-17  -1.6696145308772949e-17  2.8914093513563131e-18  -6.0706970050574453e-18  -7.3098798273062396e-18  -1.7099533213492183e-18  -8.0274597946177331e-18  2.6607920860518959e-18  -6.0467698239764211e-18  -4.5997963871699660e-18  -9.3087047947421422e-20  1.9098848476838891e-20  3.3292329745587751e-19  -6.2498727061766632e-19  -3.0203922592701723e-18  -1.0992491770599227e-18  -1.3801745899973727e-18  -2.8136515329773985e-18  -1.1960799708456870e-18  -8.3315423184396781e-19  -1.5350968863246647e-18  -2.4184594208642793e-18  -2.6947858612323514e-18  1.9248048683117581e-18  8.5243390271431401e-19  -9.0840074262480934e-19  -1.2174697719147355e-18  -2.0348244472616815e-18  6.3255009775093829e-19  9.5718703551720115e-19  -8.3710792925226061e-19  -2.3019827432415351e-19  8.1349112527842550e-20  1.8201239921010028e-20  -2.6553947030637744e-19  5.6259060446670218e-19  1.0541899067179737e-18  -3.7225050593457991e-19  -2.2331309318153450e-18  -2.0622381053537625e-18  -3.8761444621882872e-19  2.4874825655825711e-19  6.9925258069443290e-19  4.4810604417716867e-20  -3.5501859570892720e-19  -7.2946522240891795e-19  -1.1985621587295541e-18  -1.3174547224623675e-18  -7.7111971874554016e-19  -1.2862364145627537e-18  -2.2757445863075891e-18  -8.9098111510687756e-19  2.0646999988748204e-18  1.4908310761190065e-18  -4.8279427066693069e-19  -1.5904412031337598e-19  -1.2147757022609161e-19  -3.7168157765028723e-19  -1.8564757936781735e-19  -1.8855618061734026e-18  -1.7111061559604008e-18  3.6684610094927080e-19  -6.0364710137138770e-19  -4.1679563485414819e-19  -2.5166136680416565e-19  -2.3546576873293884e-18  -1.8450178147694181e-18  -2.9664590587082412e-19  -1.5341433798087000e-18  -1.4453821408101980e-18  -6.6655652350736639e-19  -6.3608567344215478e-19  -3.8436074486676572e-19  -7.0865132722158529e-19  -2.0579847156249923e-18  -2.5490417428177717e-18  -1.3641641318099986e-18  -6.2812822647043935e-20  5.3806368036276606e-20  2.7581134410526280e-20  -1.5312030975801312e-19  -1.4626835462824021e-19  -1.9330527874731409e-20  3.6278163963587651e-19  -1.7560975101664749e-18  -1.2848489453576118e-18  -5.6628098079371010e-19  -5.4763234191457531e-19  -1.9587559730462158e-18  -2.9904522097846478e-18  -3.1951599644532844e-18  -2.1159733147449754e-18  1.3891888532110416e-19  -3.9214090842212400e-19  -7.9403967209529888e-19  -6.0647691988739339e-19  -1.0940218869020668e-18  -1.9887489692694778e-19  -5.0829517371199728e-19  -7.7809391367540678e-19  -1.5902375106159990e-19  3.4486432111779509e-20  -8.0597897075615960e-02  -6.9709309745964329e-02  -6.0018227706647859e-02  -5.2072681214700239e-02  -4.6197575366519569e-02  -4.2056041527456761e-02  -3.9758965672555019e-02  -3.8841054502210030e-02  -3.9710604266314481e-02  -4.2172347699733298e-02  -4.6224430560357015e-02  -5.2002306393533940e-02  -5.9879038089673528e-02  -6.9663660182623363e-02  -8.0589066094508416e-02  -8.5762172839565581e-02  -7.7977053939597363e-02  -6.9889943840447985e-02  -6.2796215482382511e-02  -5.6754885008400237e-02  -5.1938505781368646e-02  -4.8134559372268543e-02  -4.5426807386380545e-02  -4.3881259212920569e-02  -4.3310461805997617e-02  -4.3789661441140174e-02  -4.5417829701561607e-02  -4.7904589957248361e-02  -5.1979734725840068e-02  -5.6844108604362301e-02  -6.2803468262069312e-02  -6.9875763386032463e-02  -7.8007966257448907e-02  -8.5782815832652654e-02  -8.0622729994241554e-02  -6.9817487890154281e-02  -6.0093361340794238e-02  -5.2146302819611537e-02  -4.6300540798005281e-02  -4.2112916989498199e-02  -3.9626492319211844e-02  -3.8797401163943680e-02  -3.9480424222943421e-02  -4.1799376266382492e-02  -4.6020282152033340e-02  -5.1824106007760891e-02  -5.9881188306644240e-02  -6.9655058340601664e-02  -8.0501053962606262e-02  -8.5668064960890342e-02  -7.7817075519969386e-02  -6.9756999893150207e-02  -6.2635896843343683e-02  -5.6742915589749657e-02  -5.1855536390959842e-02  -4.7757485291982919e-02  -4.5252892599121228e-02  -4.3585574497660824e-02  -4.3002075693350197e-02  -4.3571826156488178e-02  -4.5132174774171016e-02  -4.7902067427392600e-02  -5.1680092704497888e-02  -5.6482528125790563e-02  -6.2522717500958613e-02  -6.9675281022054822e-02  -7.7753300985710205e-02  -8.5578977952492169e-02  -1.4562518563193884e-02  -2.5159641163624586e-03  -1.4305226308907952e-02  -2.5908694384854411e-03  -9.9831956785288098e-03  -8.4620905528453999e-03  -1.4667922577764758e-02  -4.2271812317985821e-03  3.4333353938177094e-03  5.6318679042207244e-04  2.7223095173113318e-03  2.3091542818688931e-03  4.4125641723004984e-03  3.7493050682760377e-03  -1.9435781271721304e-02  8.9249105747576420e-03  -1.3607785858067364e-02  -1.5801280889950219e-02  5.8378653226789975e-03  -2.3481360500948609e-02  -3.2869502707106146e-02  -3.1957824061375990e-02  -3.4186593065394837e-02  -3.0626702686766941e-02  -4.4639370615681719e-02  -4.1920495234697736e-02  -4.6583418745488069e-02  -4.5611039819617949e-02  -2.2868451829692837e-02  3.0214951350450285e-03  1.2342232253020011e-02  2.9073741769525548e-02  3.9581807919573560e-02  5.6260592082145525e-02  6.8614785737611428e-02  8.1394132096183971e-02  4.1682851312887327e-02  9.5230873408492497e-02  1.0352571312068952e-01  7.9852281162190814e-02  9.8561763205307198e-02  7.2901829116948091e-02  8.2265331407511633e-02  1.0551259929733288e-01  8.5513526938100645e-02  1.0146987341590329e-01  7.6801205560927288e-02  8.2931899287407421e-02  5.8145866788117305e-02  5.7257585910474883e-02  7.5869776272132053e-02  9.9320446934011805e-02  8.2602830966004931e-02  1.0114912094181479e-01  8.2038069501046668e-02  9.7450178318358727e-02  7.5619792790111356e-02  8.7651077315362702e-02  6.1178005728172766e-02  7.5742989313963782e-02  9.9617337807547127e-02  7.9670626192135427e-02  9.9266869788989229e-02  5.5910005450942275e-02  5.4237579732038965e-02  4.1470371474910665e-02  4.6498578732107339e-02  5.4555707160839462e-02  4.2070287669511187e-02  6.0326022724724308e-02  8.5190746364393763e-02  2.0100563157532277e-02  3.4595479915960868e-02  5.0336557773620713e-02  4.4342997285391962e-02  5.6787601151813777e-02  8.7968384927435445e-02  5.3579520954896029e-02  8.1105500316190043e-02  1.0774803118979880e-01  9.3178952596816869e-02  6.9609094647029843e-02  7.4925663896886763e-02  1.0372003661535044e-01  7.8909194511802228e-02  5.5245907323641562e-02  5.5110644720800003e-02  7.0697892424410297e-02  3.4018739071363685e-02  2.9058564452590214e-02  9.2319012096843296e-03  8.5795561103760454e-03  1.1569219785534027e-01  2.8988976756503953e-02  3.0504741157150305e-02  2.4730290901386062e-02  4.1840677362870754e-02  7.8106704724470065e-03  2.2439317982625114e-03  1.7666371045627571e-02  5.0330646822676073e-02  2.7559333101588136e-02  1.7428252840914215e-02  3.4254051830276945e-02  6.0040830440447383e-02  3.7454918014217242e-02  3.1389127909159709e-02  5.6212543583253193e-02  3.4388283899637939e-02  1.3776758620880378e-02  5.3152153386193685e-03  1.7707186165546215e-02  2.2455865240450120e-02  3.1877109880295365e-02  1.2703871649272103e-02  5.2897849771361201e-02  1.1914780376804422e-01  1.2179440113738990e-02  1.1926834798830932e-01  7.4536339682617428e-02  4.6544064947021409e-02  6.9923819537036774e-02  4.4074553509778396e-02  2.3973481882537128e-02  1.9491698286584348e-02  3.3879058230307492e-02  5.0385141357647607e-02  3.1834934469617063e-02  2.9335176374102715e-02  1.0772055008193719e-01  -1.0852022336878471e-02  -1.3394735784275452e-02  4.6849617404055598e-02  2.2175476852967255e-02  2.7206726964771777e-02  4.2064603188084998e-02  3.1891108369012787e-02  1.1190021298736441e-02  3.0143849787028200e-02  1.2421750799852149e-02  9.7432377566959421e-03  -7.4901634388498091e-03  -2.2850391755482504e-02  -2.2218182468242843e-02  2.4069578826802863e-02  6.4964375092686046e-03  4.1800328511000396e-03  -6.8399191006099473e-03  -2.6071235990903378e-02  -3.0625450719190286e-02  -1.4967745860343887e-03  2.4776041563126783e-02  4.6884670131874161e-02  -1.4706340413969177e-02  -7.0853301512438039e-03  1.4976289655430346e-03  -2.3389813327118345e-02  2.9276753861458408e-03  5.5955825115676225e-03  -8.1710383800801707e-03  -3.0086613033381032e-02  -7.1591589721633122e-03  4.8607677790995828e-03  -8.8819147267381847e-03  1.3104958518939995e-02  -2.8039507278800791e-03  1.6176776388923248e-02  9.7031731287275911e-04  -1.6162148363630197e-02  -3.4295185548869858e-02  -2.4311940363260013e-02  8.6291026494512459e-03  3.5475485009834135e-02  -9.1507927649559714e-03  -7.9238203875624854e-03  3.5920215923697860e-03  -4.6568224960070355e-02  -4.6743266373184371e-02  -4.5048445462763306e-02  -4.7009871193366443e-02  -1.1526866166416158e-03  1.0871900295133290e-01  1.2254942852285404e-01  2.5355464513669716e-02  -8.2000584828139864e-03  -1.0729259354142952e-02  -8.2133246583012166e-03  -3.1918857177533670e-02  2.8595655902563361e-03  4.5140969996625228e-04  3.0381368139719759e-02  4.5959938525694570e-02  4.7710747887638053e-03  4.8193007464747376e-02  1.1706253774434511e-01  1.1584502370729331e-01  9.1288196783939679e-02  1.7062979928626914e-02  9.5423379331708615e-04  2.7549288568851246e-02  1.7493588024515842e-02  2.7144342708871502e-02  7.7295612327529621e-04  1.4968030219601257e-03  1.1315199610423507e-01  -1.1902747749385451e-02  2.4306582717116922e-02  1.6340426247032674e-02  5.3697029152466741e-02  4.6012654642218981e-03  4.9828578581764364e-02  9.1272154705739447e-02  -1.9945580536846869e-03  1.2530038772760485e-01  6.3319221541868476e-02  -2.9314742825038553e-02  4.6596795599299891e-02  2.5622287268364644e-02  2.1046409639718083e-02  1.0960792253961069e-01  -1.3495002773053115e-03  9.0413286234103107e-03  2.6488221004086498e-02  1.2763177306968457e-01  1.7535027366788542e-02  2.5777023297766453e-02  1.2268028332720116e-01  5.9999660868926177e-02  2.8238604901996627e-02  1.2719099329163783e-01  5.0734327724752823e-02  1.2263641400074788e-02  5.6278317096693526e-03  3.4545139006902981e-02  5.9242394092921827e-02  2.4498853250476842e-02  -3.0668252876472624e-03  4.7580430164036243e-02  -5.7593997661418525e-02  -5.7665836571647484e-02  -5.7514725172096909e-02  -5.7544812655257065e-02  9.7691802727313728e-03  -1.2289787094319465e-02  1.3524595325780325e-02  -1.2567418911831681e-03  2.1613355637132219e-02  6.3115121246815259e-02  -8.9689704854575142e-03  3.9389648044136673e-03  3.7356307902757235e-02  7.0179674865594746e-02  5.7963902471112050e-02  7.3039055362173227e-02  8.8730809737249689e-03  7.0349830551752299e-02  2.6730691863546312e-02  7.7941385296685844e-02  1.2570757593209214e-01  3.2904909012343143e-02  5.5142828512655208e-02  3.8677723986020082e-02  2.5882769916392077e-02  6.6309995939726224e-02  6.9535704439922796e-02  1.1824303580477441e-01  -2.2082170679846108e-02  -7.2277859586591414e-02  -7.2670923523120920e-02  -8.1759962947078171e-02  -9.7942322138649784e-02  -8.2136532020398029e-02  -9.8686710274302314e-02  -7.2868312348408543e-02  -8.1590759893781492e-02  -7.2803736236538713e-02  -8.1911008396871349e-02  -9.8158012085061613e-02  -9.8249807835980585e-02  -4.9507778247463816e-02  -4.3711051289643810e-02  -5.3982358062783668e-02  -4.5740908486175659e-02  -6.4629462597345491e-02  -8.5921069939180014e-02  -8.5978245780017240e-02  -6.4282579449207122e-02  -1.0395979846016531e-01  -1.1254974050970831e-01  -6.7297347528486054e-02  -6.7293883654106212e-02  -9.4552628186919618e-02  -1.1120085255077340e-01  -1.1921059532227117e-01  -1.2089942709490933e-01  -1.2634986570023071e-01  -1.2827261664644937e-01  -5.1094488803324754e-02  -4.9470392251358040e-02  -5.1172826744452386e-02  -4.9206786513100009e-02  -4.3189205231184885e-02  -4.1306058994344717e-02  -4.4555424217202939e-02  -1.3164844555169763e-01  -1.3360060436765661e-01  -1.1692511866541658e-01  -1.0912416588998598e-01  -3.3132816962015192e-02  -3.7625971221898889e-02  -3.5788739763428959e-02  -2.9089531098046406e-02  -3.1158904219228699e-02  -2.8456569440436626e-02  -3.9311520881181485e-02  -4.4878173595183299e-02  -1.1272572960690561e-01  -1.0564629217037884e-01  -5.1522839857058370e-02  -4.5633192317850138e-02  -5.2089713574367258e-02  -1.1020589726532524e-01  -1.1423141790836154e-01  -1.1959790265230538e-01  -1.2327078012663788e-01  -1.2838549122892012e-01  -1.3003113843652855e-01  -1.2406691962692061e-01  -1.3391131705740089e-01  -1.3287445191879194e-01  -1.3189369165239168e-01  -1.1005183785840075e-01  -1.1445029051643213e-01  -1.1950204744341564e-01  -1.2315527581212221e-01  -1.1784439611939872e-01  -1.2820715660945134e-01  -1.2974646191667716e-01  -1.3363660102638825e-01  -1.3261705300014881e-01  -1.3183619235738428e-01  -7.7907951270120110e-02  -1.0401312621907090e-01  -1.1269873723994782e-01  -1.1134901750309814e-01  -1.1942123927792062e-01  -1.2107278093032381e-01  -1.2650965939462061e-01  -1.2849540748448421e-01  -1.3179237946312447e-01  -1.3397576003837550e-01  -6.2400681763130079e-02  -6.2947019374221813e-02  -7.2146657856154955e-02  -7.2339454208701234e-02  -1.2339282410851771e-01  -1.3443395855028628e-01  -1.3396905166772147e-01  -1.3295093597439375e-01  -1.3485901028817610e-01  -1.3432814744938515e-01  -4.6327250003593695e-02  -1.3389823541840976e-01  -1.3413265966741844e-01  -1.3269453295058140e-01  -1.3372433619225568e-01  -1.3396939610854697e-01  -1.2758417460700491e-01  -7.7022277007540635e-02  -1.2919179371631626e-01  -1.2996457031903416e-01  -4.1725080077219992e-02  -3.8168873818235832e-02  -4.1383472411605969e-02  -1.2811673791292622e-01  -1.2864300203013121e-01  -1.0274191213321045e-01  -9.6296660243093302e-02  -1.3171864077070566e-01  -1.3279135115569707e-01  -1.3124774128578631e-01  -1.3243377833649289e-01  -1.2875911126546272e-01  -1.3151576747513563e-01  -1.2672473161558617e-01  -1.2809837604450930e-01  -1.2420205141717422e-01  -1.2444213264862169e-01  -1.2951236596230073e-01  -1.3158123020428897e-01  -1.2707810180468726e-01  -1.2809466497368363e-01  -1.2428345806780643e-01  -1.2478426359696335e-01  -1.2170374537784627e-01  -1.2201750161835503e-01  -1.1934226563537395e-01  -1.2013283167663588e-01  -1.1797238523924596e-01  -1.1945662946994827e-01  -1.1750830509343982e-01  -1.1993112219624788e-01  -1.2135102612628314e-01  -1.2166348759710571e-01  -1.1888200718232543e-01  -1.1980142496086359e-01  -1.1748590358889867e-01  -1.1918586951217117e-01  -1.1696088559718840e-01  -1.1966410247163710e-01  -1.2697738704409078e-01  -1.2469894177060568e-01  -1.2091769179530597e-01  -1.2078382747048703e-01  -1.2654729222211097e-01  -1.2385410893429670e-01  -1.1805058715855252e-01  -1.2149172257260624e-01  -1.1907813809063575e-01  -1.2370639687901319e-01  -1.2059301328088390e-01  -1.1747087419464824e-01  -1.2115059668164875e-01  -1.1841130772725261e-01  -1.2340623374496779e-01  -1.2005945901815789e-01  -1.2731155007988268e-01  -1.2478629444665072e-01  -1.1806698838016169e-01  -1.1657270488161228e-01  -1.2019501580509358e-01  -1.1659754568686707e-01  -1.2006864161184473e-01  -1.1132562183823871e-01  -1.1482445131969933e-01  -1.1223215829309198e-01  -1.1593377370092114e-01  -1.1304792869738109e-01  -1.0666198828599338e-01  -1.1308693513390743e-01  -1.2529318013188551e-01  -1.1707006319377955e-01  -1.1353182157699164e-01  -1.0604536816130065e-01  -1.2547340727219047e-01  -1.1497388850471590e-01  -1.1828541896036074e-01  -1.1225826314993335e-01  -1.1880326823094108e-01  -8.5220907870756923e-02  -9.0235656493975719e-02  -7.9308410613346828e-02  -9.1169065625247847e-02  -1.0807810799907731e-01  -1.1562021649878450e-01  -8.9791312391627090e-02  -1.2774451775307646e-01  -3.4016950244318431e-02  -1.0028409327623798e-01  -1.2882505474652806e-01  -1.1025525466364959e-01  -7.5512070928581657e-02  -8.4352364341033617e-02  -1.1064744276482574e-01  -1.1473157638960438e-01  -1.1459714235982615e-01  -1.0283450252695155e-01  -1.0958081069460884e-01  -1.0215372066766315e-01  -1.0672193438438474e-01  -9.9486310699910416e-02  -9.8753038295862031e-02  -9.1923987281770550e-02  -1.0772186257012663e-01  -9.1778141732022214e-02  -8.6456222517088260e-02  -8.5076825604298481e-02  -8.2251025927239235e-02  -8.1135654693645962e-02  -7.9971841595899457e-02  -7.9045149548820748e-02  -1.0946851226140950e-01  -1.1487058224786433e-01  -1.0716228607080307e-01  -1.1522666840077957e-01  -8.7863940567549703e-02  -8.3005171430167418e-02  -9.1440169892958542e-02  -8.0397581056506448e-02  -1.0890463065418871e-01  -1.1120443100409479e-01  -7.2817411879857893e-02  -3.1114016465954006e-02  -3.7146051828742449e-02  -3.4310526056583406e-02  -1.0958414624754141e-01  -1.0307677566414328e-01  -1.1920346527777199e-01  -1.0777446729521875e-01  -1.0952424503710752e-01  -9.2184540122644487e-02  -9.6881841975364300e-02  -9.4066729784888503e-02  -9.4013325145275120e-02  -9.8265810307331197e-02  -1.0352967058331587e-01  -9.6049418730996219e-02  -8.6383730646240206e-02  -8.7970598662502009e-02  -8.7735128660004463e-02  -8.3627927525637968e-02  -8.1529576192329339e-02  -8.1465457591877705e-02  -7.5077452485996385e-02  -7.9525363871682492e-02  -7.8267282981465069e-02  -8.0091680244989083e-02  -7.8341631200212924e-02  -8.3298021594661653e-02  -7.7792940102949695e-02  -8.6912671432180927e-02  -8.5493129270000343e-02  -9.2004421566726793e-02  -9.0636121503742395e-02  -9.9641546000580741e-02  -9.3552339330474701e-02  -1.0847046472556936e-01  -9.4690664499473692e-02  -1.1122848396438462e-01  -1.0408477451872440e-01  -1.1048016236024678e-01  -1.0195103602387914e-01  -1.2822417137250047e-01  -1.1840640787934466e-01  -7.7652647412858711e-02  -8.5386753464038373e-02  -1.0389808424141792e-01  -1.0180817381551475e-01  -1.1782494902055471e-01  -7.7599934724946473e-02  -1.2480190515103980e-01  -7.2198554618153998e-02  -9.1152515137171208e-02  -8.3123122897339446e-02  -1.0538171270433508e-01  -8.8597992314262602e-02  -1.0944936905502979e-01  -7.4701084256792616e-02  -1.0573811527746206e-01  -1.0627550493320634e-01  -9.1047518110896966e-02  -8.7532068987225667e-02  -9.9101469388993738e-02  -8.0222968811555842e-02  -7.6183573750978062e-02  -8.5908082191808718e-02  -9.2317014712098924e-02  -1.0476410697900737