<?xml version="1.0"?>
<VTKFile type="UnstructuredGrid"  version="0.1"  >
<UnstructuredGrid>
<Piece  NumberOfPoints="1297" NumberOfCells="2496">
<Points>
<DataArray  type="Float64"  NumberOfComponents="3"  format="ascii">0 0 0  0 1 0  1 1 0  1 0 0  1.1 -0.1 0  -0.1 -0.1 0  1.1 1.1 0  -0.1 1.1 0  0.2600955787953266 0.6762862298560252 0  0.2574837575746913 0.324806651227256 0  0.7406843190138865 0.3241454360710626 0  0.7420306709753409 0.6733676483003639 0  0.4998447126242308 0.4998209590996087 0  0 0.9499999999997918 0  0 0.8999999999995836 0  0 0.8499999999996529 0  0 0.7999999999999998 0  0 0.7500000000003466 0  0 0.7000000000006934 0  0 0.6500000000010401 0  0 0.6000000000013869 0  0 0.5500000000017335 0  0 0.5000000000020587 0  0 0.4500000000018723 0  0 0.4000000000016644 0  0 0.3500000000014564 0  0 0.3000000000012483 0  0 0.2500000000010403 0  0 0.2000000000008322 0  0 0.1500000000006241 0  0 0.100000000000416 0  0 0.05000000000020799 0  0.04999999999989965 0 0  0.09999999999981467 0 0  0.1499999999997036 0 0  0.1999999999995579 0 0  0.2499999999994121 0 0  0.2999999999992664 0 0  0.3499999999991206 0 0  0.3999999999989749 0 0  0.4499999999988292 0 0  0.4999999999986943 0 0  0.5499999999988151 0 0  0.5999999999989468 0 0  0.6499999999990784 0 0  0.69999999999921 0 0  0.7499999999993417 0 0  0.7999999999994734 0 0  0.8499999999996051 0 0  0.8999999999997368 0 0  0.9499999999998684 0 0  1 0.04999999999989965 0  1 0.09999999999981467 0  1 0.1499999999997036 0  1 0.1999999999995579 0  1 0.2499999999994121 0  1 0.2999999999992664 0  1 0.3499999999991206 0  1 0.3999999999989749 0  1 0.4499999999988292 0  1 0.4999999999986943 0  1 0.5499999999988151 0  1 0.5999999999989468 0  1 0.6499999999990784 0  1 0.69999999999921 0  1 0.7499999999993417 0  1 0.7999999999994734 0  1 0.8499999999996051 0  1 0.8999999999997368 0  1 0.9499999999998684 0  0.9499999999997918 1 0  0.8999999999995836 1 0  0.8499999999996529 1 0  0.7999999999999998 1 0  0.7500000000003466 1 0  0.7000000000006934 1 0  0.6500000000010401 1 0  0.6000000000013869 1 0  0.5500000000017335 1 0  0.5000000000020587 1 0  0.4500000000018723 1 0  0.4000000000016644 1 0  0.3500000000014564 1 0  0.3000000000012483 1 0  0.2500000000010403 1 0  0.2000000000008322 1 0  0.1500000000006241 1 0  0.100000000000416 1 0  0.05000000000020799 1 0  -0.1 1.05000000000004 0  -0.1 1.000000000000079 0  -0.1 0.9500000000001624 0  -0.1 0.9000000000003032 0  -0.1 0.850000000000444 0  -0.1 0.8000000000005848 0  -0.1 0.7500000000007256 0  -0.1 0.7000000000008665 0  -0.1 0.6500000000010508 0  -0.1 0.6000000000012352 0  -0.1 0.5500000000014196 0  -0.1 0.500000000001539 0  -0.1 0.4500000000014195 0  -0.1 0.4000000000013 0  -0.1 0.3500000000011588 0  -0.1 0.3000000000010178 0  -0.1 0.2500000000008986 0  -0.1 0.2000000000007579 0  -0.1 0.1500000000006174 0  -0.1 0.1000000000005272 0  -0.1 0.05000000000040083 0  -0.1 2.671196597248127e-13 0  -0.1 -0.0499999999998666 0  -0.0500000000000906 -0.1 0  -1.730560139634463e-13 -0.1 0  0.04999999999975802 -0.1 0  0.09999999999961506 -0.1 0  0.1499999999994613 -0.1 0  0.199999999999302 -0.1 0  0.2499999999991446 -0.1 0  0.2999999999990088 -0.1 0  0.3499999999988296 -0.1 0  0.3999999999986936 -0.1 0  0.4499999999985143 -0.1 0  0.4999999999984002 -0.1 0  0.5499999999985247 -0.1 0  0.5999999999986493 -0.1 0  0.6499999999987955 -0.1 0  0.6999999999989417 -0.1 0  0.7499999999990659 -0.1 0  0.7999999999992116 -0.1 0  0.8499999999993573 -0.1 0  0.8999999999994526 -0.1 0  0.949999999999584 -0.1 0  0.9999999999997226 -0.1 0  1.049999999999861 -0.1 0  1.1 -0.0500000000000906 0  1.1 -1.730560139634463e-13 0  1.1 0.04999999999975802 0  1.1 0.09999999999961506 0  1.1 0.1499999999994613 0  1.1 0.199999999999302 0  1.1 0.2499999999991446 0  1.1 0.2999999999990088 0  1.1 0.3499999999988296 0  1.1 0.3999999999986936 0  1.1 0.4499999999985143 0  1.1 0.4999999999984002 0  1.1 0.5499999999985247 0  1.1 0.5999999999986493 0  1.1 0.6499999999987955 0  1.1 0.6999999999989417 0  1.1 0.7499999999990659 0  1.1 0.7999999999992116 0  1.1 0.8499999999993573 0  1.1 0.8999999999994526 0  1.1 0.949999999999584 0  1.1 0.9999999999997226 0  1.1 1.049999999999861 0  1.05000000000004 1.1 0  1.000000000000079 1.1 0  0.9500000000001624 1.1 0  0.9000000000003032 1.1 0  0.850000000000444 1.1 0  0.8000000000005848 1.1 0  0.7500000000007256 1.1 0  0.7000000000008665 1.1 0  0.6500000000010508 1.1 0  0.6000000000012352 1.1 0  0.5500000000014196 1.1 0  0.500000000001539 1.1 0  0.4500000000014195 1.1 0  0.4000000000013 1.1 0  0.3500000000011588 1.1 0  0.3000000000010178 1.1 0  0.2500000000008986 1.1 0  0.2000000000007579 1.1 0  0.1500000000006174 1.1 0  0.1000000000005272 1.1 0  0.05000000000040083 1.1 0  2.671196597248127e-13 1.1 0  -0.0499999999998666 1.1 0  0.244737681330809 0.6591276323904901 0  0.2336027898032111 0.6367996370858134 0  0.2242682479047158 0.6133869269894959 0  0.2168527532585503 0.5900421430706266 0  0.2111623951841986 0.5673718660843495 0  0.2065976048769915 0.5452529665779359 0  0.2035053917453598 0.5231392663657296 0  0.2030031890039579 0.5011332789916011 0  0.2034244349118789 0.4791506108556275 0  0.2060566774506638 0.4567675840993422 0  0.2101628604740332 0.4343539495378506 0  0.2157017033897096 0.4118059424491105 0  0.2224114546287567 0.3886496343238332 0  0.2312634694988229 0.3649282834774584 0  0.2421778291631791 0.342379530544998 0  0.2770868165488483 0.3120399483814538 0  0.3010515170650629 0.3027448734928694 0  0.3264403266566911 0.2947588886997602 0  0.3520452742172338 0.2878926759303456 0  0.3772798533133185 0.2820869464119813 0  0.4020018998995489 0.2769220081247607 0  0.4264159606940009 0.2727028882735479 0  0.4507609114371505 0.2693567035930873 0  0.4751346833100929 0.2674974221925859 0  0.499363566439736 0.2668825791357654 0  0.5235777307767644 0.2676261465425774 0  0.5478399445724607 0.269619600918014 0  0.5722842568211612 0.2726470111248335 0  0.5967771284498284 0.2769982986250282 0  0.6217363458082836 0.2819712969905268 0  0.6470619552773744 0.2877668796459122 0  0.6724899865273372 0.2944616563418129 0  0.697580057171719 0.3022480178231708 0  0.7212524875118669 0.3112902065258538 0  0.7554482219060862 0.341565683862855 0  0.7668615699211265 0.3634063368277979 0  0.7761964203654426 0.3867691406369396 0  0.7834017270501716 0.4099338522448028 0  0.7892127106170647 0.4325448707153607 0  0.7932635217127378 0.4549140872965757 0  0.7955877000019843 0.4769225134399183 0  0.7960712718832574 0.4985225037606692 0  0.7950343220851426 0.5200516309328861 0  0.792567780075252 0.5416976797955461 0  0.7887997946053587 0.563829920934547 0  0.7835650226658457 0.586330907857277 0  0.7768995682666813 0.6099308943322403 0  0.7679643159055838 0.6335401562446521 0  0.7569326400483324 0.6558063065558053 0  0.7225516547110925 0.6864234126363348 0  0.6987663663380216 0.6954455109737389 0  0.6739592807971382 0.7035891438979572 0  0.6485488353789355 0.7108948878620235 0  0.6232185969964991 0.7172329153140758 0  0.5981176618595453 0.7226002029543229 0  0.5735963440934977 0.7271578120008365 0  0.5492363439264252 0.7303265644508414 0  0.5250878476813382 0.7323192169157843 0  0.501044628594446 0.7329897909095547 0  0.4769526447028469 0.7324147224123836 0  0.4527495349361773 0.730458129735884 0  0.4285443516958448 0.727249632483141 0  0.4040322721186391 0.723172917085057 0  0.3790606319954382 0.718239309379037 0  0.3538597718233268 0.7124314223726292 0  0.3283790552802217 0.7057122301435617 0  0.3031611501156194 0.6978969613772417 0  0.2794749786934766 0.6887792023353805 0  0.3623168460881801 0.3104242100308846 0  0.2370928571553737 0.4442222535167055 0  0.3640987978306353 0.6899287439411472 0  0.2378985591560644 0.5574285960942839 0  0.7598650645818844 0.5767500923669325 0  0.6122741950433159 0.6952293839891439 0  0.635448330162894 0.3094925549812212 0  0.7640610522491069 0.4417390856087281 0  0.7668648290671338 0.5090419053128123 0  0.56027517501518 0.2956939992942694 0  0.4386447912558983 0.2978997225973591 0  0.439053226693753 0.7023853668554432 0  0.5376532876669037 0.7051638945587047 0  0.2327819593261354 0.4895814622985881 0  0.2446597044668261 0.3980629163427419 0  0.4872201640379156 0.2968522315482396 0  0.2531388451328354 0.602075738769472 0  0.7465278573043498 0.3942740455287957 0  0.4886842237200039 0.70639124729186 0  0.6634457522026221 0.6827928723370621 0  0.3101202785171922 0.3255556763470013 0  0.6889868792008695 0.3265597474106789 0  0.3131113881296453 0.6777035271247571 0  0.7441610238379451 0.6252922403490754 0  0.2620593052454427 0.3518083433412531 0  0.2669071776231281 0.648109515387683 0  0.7139841401899252 0.6677241388893252 0  0.7368362120706189 0.3503834864315487 0  0.3385591991184939 0.6842164198997938 0  0.3488029743270216 0.6629495959311061 0  0.3744760687818787 0.6673705362723386 0  0.3585594064594401 0.640783479249166 0  0.3855944991490067 0.6443722369013641 0  0.3683742943268087 0.6156001754625211 0  0.4009785550492709 0.61875537525337 0  0.3806523936089817 0.5850620987660634 0  0.3356448738238605 0.6111873441047023 0  0.4205041078421903 0.5870432273134146 0  0.3961189888804167 0.5492482201849592 0  0.3485320635537114 0.5535234926035124 0  0.3679723921722874 0.5145417041438288 0  0.3218460767236071 0.5164537075795894 0  0.3378352462978627 0.4822177845243802 0  0.3859373150887447 0.4761815627393411 0  0.3611913592393603 0.4436411144254441 0  0.4042562521358875 0.4367074896258742 0  0.3815009233292518 0.4056524782369178 0  0.4203809715175497 0.3915701806692357 0  0.3406589072581411 0.4095477118820219 0  0.3934636342216234 0.3707256683771694 0  0.4322358896124768 0.6225855161895549 0  0.4607071542542149 0.5963533726307112 0  0.4820980157155266 0.6244404374773633 0  0.5027633827541872 0.5983399001762677 0  0.5227137691271727 0.6244773620421131 0  0.5437934410001145 0.5981947589952649 0  0.5629854774452236 0.6239638269283803 0  0.5845582600271608 0.5977492653797269 0  0.603964481541271 0.6253906064857392 0  0.6257417439639832 0.5895855423051343 0  0.607841251064
[...]
<PointData  Scalars="u"> 
<DataArray  type="Float64"  Name="u"  format="ascii">-1.0764123163125071e-18  -3.8357162520206261e-18  1.5343659956192368e-19  -1.5329745672393899e-18  5.2837873301981277e-20  1.7936953918765679e-20  -1.2592584866903531e-20  1.8691901489532271e-19  -7.5662824400680090e-02  -7.5543536149588059e-02  -7.5899033610519917e-02  -7.5995796144402189e-02  1.3146849331751922e-01  -3.1486924736113107e-18  -1.2499355557877742e-17  -7.0563947665122527e-18  -1.0715379154519594e-17  8.9194423492470807e-19  -1.8956250755592075e-17  -1.7637225352794462e-17  -2.4591506446946317e-17  1.0233572041266552e-17  -3.8245782665361301e-17  -4.2783952558767154e-17  1.7739175319793922e-17  -1.2304988016473067e-17  -2.0269028523879819e-17  1.8076529574818306e-17  -1.7717654580434323e-17  1.3772015328871433e-17  2.8207531413092289e-18  -4.5964238470437411e-18  -2.5899627971688660e-18  -9.5251808561943555e-18  -3.4580621601105475e-18  -1.0792660260361148e-17  -7.5025887425016145e-18  -7.7095069710334606e-18  -3.6872721766036774e-17  -3.7489161855065137e-17  1.8773000362314496e-17  -2.0736209291688693e-17  5.7723279444577696e-18  4.2344964336636672e-17  -1.9151619120265950e-17  3.0493145717361795e-18  -2.0562473915470847e-17  -2.4458237865778018e-17  -4.2310138602849015e-18  5.9313278293996237e-18  2.2468001052689818e-17  -2.5303991898680672e-17  -3.5185627816996498e-17  -2.3108868771502760e-17  -1.3458666483558069e-17  -2.5744005678867487e-17  1.8741761045517808e-18  1.6938348372111962e-18  -9.1231361055971239e-18  -9.6265141807565676e-18  -3.0877804061950303e-19  -1.6258622990825825e-17  -1.9743937301173958e-17  -4.4630342658612771e-18  -8.9515415212478925e-18  -1.4398581270628402e-17  -9.9686498053658030e-18  -5.3785264154893432e-18  -2.0491569721783302e-17  1.8331519150155199e-19  -6.1340553002332699e-18  -1.0185967649076824e-17  -1.8037947405301987e-17  -2.8839564703191330e-18  -3.2850899291523828e-17  -2.7340044205180605e-17  -1.5680505552296549e-17  -1.6239872868894885e-17  -4.0404998750389759e-17  -5.5013951393983647e-17  -1.1262192210197064e-17  2.5437151563786584e-17  6.1208338270613596e-18  -2.3462229633809399e-17  -3.4942752412656212e-18  1.5141684576966477e-18  1.1855691415385628e-17  3.0744208765952524e-18  2.2016145799157826e-18  -1.3994418278557870e-19  -1.7101690447371722e-19  -1.1512192479617985e-18  -2.5652813737989941e-18  -1.7895273822979220e-18  -5.0131807352732101e-20  -4.2598629423575525e-19  -2.0080850588223834e-18  -3.3911340996577642e-18  -2.0900375490194768e-18  -1.4125413931108798e-19  -5.1185587462612881e-18  -5.9596279584316237e-18  1.0991766072188785e-18  -1.0362062113022447e-18  -2.5114608766685908e-18  2.0936584441370710e-19  -8.3562966607234096e-19  6.2562571625450707e-19  9.2205192039992740e-19  -6.6491990417986411e-19  -2.4633673143489922e-19  4.1169569173349666e-20  -1.8087919398673963e-20  -1.1570127534591939e-19  -6.0178230578947220e-19  -9.7697295618376793e-19  -9.5997020274868814e-19  -1.0087240438057728e-18  -6.1769051848680693e-19  -2.8156130128160882e-18  -5.5287916989863798e-18  -3.8581252681215154e-18  3.8775421238679740e-19  -1.2843319785940601e-18  1.5722394060985178e-18  2.8695623195426914e-18  -1.7704425750611072e-19  -1.2629351372386531e-18  -2.2603954089538503e-18  -3.2051631362066129e-18  -1.6051843600408821e-18  1.8061259977721609e-18  2.8246289501305775e-18  2.1477071235189016e-19  -3.2424558843274095e-19  2.9718378256474640e-19  -5.6901638237224317e-19  -3.3231364235636500e-18  -5.6284674750058445e-18  -3.4422995096217592e-18  -2.4425383153096908e-18  -2.9563232417506027e-18  -2.1374135120725547e-20  7.0207473439307388e-19  -5.5712278121960226e-20  -1.4418613899417659e-18  -4.2078497310126612e-19  -2.1355260752017449e-18  -2.6948248843078639e-18  -1.1566904761534944e-18  -7.3738437348955684e-19  -1.6585682482168256e-18  -1.3200757158152959e-18  -1.4074192206231812e-18  -2.0193583981839228e-18  -4.8739358227726113e-19  2.5612828170724282e-19  -7.4848322349539161e-20  6.9944497667232305e-20  -6.8153629123412303e-20  -7.9787669410576919e-19  -1.3670982642077267e-18  -9.1984541888835533e-19  -5.4619076728093679e-18  -3.8147026497080356e-18  -4.2091408167965644e-18  -1.3586827276425675e-18  -4.8225081631286270e-18  -8.2781077494425815e-18  -6.4107721171104747e-18  -2.0870742739086370e-18  3.7508099036698119e-18  1.2650502581863067e-18  -3.3424778088876432e-18  -1.4075501720363449e-18  4.6301685797577674e-19  7.6850915980523615e-19  9.7432198590838249e-19  -3.0981789461973640e-20  -3.6116349531642385e-19  -1.2717915471758420e-19  -7.3246103929825210e-02  -6.6854343171171754e-02  -6.0747111274139676e-02  -5.5563457020135286e-02  -5.1745322576631114e-02  -4.9306636584589690e-02  -4.8089011021600209e-02  -4.7169114019722076e-02  -4.7809671567866800e-02  -4.9127698673716677e-02  -5.1417976266392065e-02  -5.4984768366887649e-02  -6.0186721505193996e-02  -6.6546300037334929e-02  -7.2971828952554454e-02  -7.5290894495718991e-02  -7.1399764861478310e-02  -6.6719348591156316e-02  -6.2382022218858364e-02  -5.8741131631872549e-02  -5.6329347666351323e-02  -5.4564985669911463e-02  -5.3471948141368936e-02  -5.2843806260402700e-02  -5.2594474997125738e-02  -5.2707017448216549e-02  -5.3352163695737080e-02  -5.4411300925774390e-02  -5.6415781930792178e-02  -5.9056118327337655e-02  -6.2647682571547625e-02  -6.7060123327746926e-02  -7.1848064175298307e-02  -7.5760086146738514e-02  -7.3132143904090730e-02  -6.7296582691760531e-02  -6.1347315169762676e-02  -5.6289056019366901e-02  -5.2664241619562416e-02  -5.0062125603875442e-02  -4.8506733335378020e-02  -4.7884350063844609e-02  -4.8166405593227234e-02  -4.9426014752248455e-02  -5.1984062491361421e-02  -5.5693936984412273e-02  -6.1003694130505159e-02  -6.7155795884460467e-02  -7.3255376686852586e-02  -7.5892108895527083e-02  -7.1775792356248425e-02  -6.7245204599814201e-02  -6.3057942893229982e-02  -5.9733622194291583e-02  -5.7199246851430505e-02  -5.5230506082203139e-02  -5.4159129188034061e-02  -5.3412176043774719e-02  -5.3064308475750249e-02  -5.3217621960019793e-02  -5.3713694618890195e-02  -5.4810819348442674e-02  -5.6550214502588812e-02  -5.9049437847769719e-02  -6.2612978084404636e-02  -6.6956561504760814e-02  -7.1580757493434760e-02  -7.5400685041093915e-02  -1.3691544042380713e-02  -7.2351674408267274e-03  -1.3899582055562187e-02  -7.6133621573860454e-03  -1.3433178041125851e-02  -1.1013265916896791e-02  -1.4201606574612393e-02  -1.0162670770512116e-02  -4.5407549390118285e-03  -5.2582163907355615e-03  -2.8721315863696559e-03  -3.6848402759717654e-03  -3.2755134822931202e-03  -3.5617323449538018e-03  -1.9198047374142033e-02  1.7683025935401780e-03  -1.3557201006980589e-02  -1.5621105884099790e-02  -2.3183853408329656e-03  -2.0757896170919089e-02  -2.5440915171875043e-02  -2.4898515568345048e-02  -2.7366359228618454e-02  -2.5996417854429819e-02  -3.4665684697159797e-02  -3.2216199299222432e-02  -3.5925231572508411e-02  -3.5825580651707677e-02  -1.9923894808356012e-02  5.1193548370332782e-03  1.2711497377850245e-02  3.0811385941896779e-02  4.0020230749403626e-02  5.7346221909293449e-02  6.8709971296258859e-02  8.1812277340283499e-02  4.3285654464539032e-02  9.5280720832103441e-02  1.0373261019677818e-01  7.9509758870216607e-02  9.8328607824661074e-02  7.1187018120223960e-02  8.1175011673935579e-02  1.0560047441126677e-01  8.5655828649423976e-02  1.0192070144962209e-01  7.7485870824191658e-02  8.2907345722112460e-02  5.9428081562463403e-02  5.7913900307799783e-02  7.5170721443501412e-02  9.8810694052836628e-02  8.1069886685327469e-02  1.0041967695400261e-01  8.0294303689513458e-02  9.6737240980047892e-02  7.4474970856593561e-02  8.7190984789415976e-02  6.1035793590454981e-02  7.5805502156550394e-02  9.9426716236721585e-02  7.8918675441481762e-02  9.8597221998998008e-02  5.6371011522174205e-02  5.2955201107220309e-02  3.9866062219636698e-02  4.3496231141615403e-02  5.3298497238246756e-02  3.9426221198921432e-02  5.9800707455009455e-02  8.4394999986548411e-02  1.8616549375531602e-02  3.3183773022306573e-02  4.6959312102090672e-02  4.0965573166718117e-02  5.5068193056799372e-02  8.6937646230135959e-02  5.1384024791568464e-02  8.0055134308175582e-02  1.0773899749366987e-01  9.2843036149672598e-02  6.9173883551321716e-02  7.4913402768984061e-02  1.0379734987291282e-01  7.9018539290871909e-02  5.6245564136318552e-02  5.5848209096962677e-02  6.9860764973366407e-02  3.5347673192054938e-02  2.9568190729333119e-02  1.1928450769177625e-02  1.1377220059658955e-02  1.1556064147163315e-01  2.8873048227637501e-02  3.1466722188502640e-02  2.2031422729375198e-02  3.8992442318374503e-02  8.7738776049197248e-03  6.1987270439326910e-03  1.9583729910116369e-02  4.8157687068774810e-02  2.2619018356299748e-02  1.2428184626962992e-02  3.0832726644353346e-02  5.9231963939827326e-02  3.8394606304318478e-02  3.3066388291370048e-02  5.4483072064413163e-02  3.2118618854979360e-02  1.4908953168537489e-02  9.4931949824885401e-03  2.0341851807261387e-02  1.8947782264226096e-02  3.1169790213169291e-02  6.6442802070368866e-03  5.3162013127495002e-02  1.1945354478146679e-01  1.1190256362676851e-02  1.1971429813986219e-01  7.2376923342186317e-02  4.3347020601976975e-02  6.7411701973920116e-02  4.0974487634209300e-02  1.8160368532251499e-02  1.3864696379609008e-02  3.1371426901016991e-02  5.1933550937041849e-02  3.2625115227363735e-02  2.5147346850788805e-02  1.0736365758853332e-01  -5.0541981828289336e-03  -8.5494031844710883e-03  4.7939228436776685e-02  2.3227599133673567e-02  2.8870119508411451e-02  4.2470153881098906e-02  3.0226103716253293e-02  1.1564447990917614e-02  3.1018049889530854e-02  1.5209957696331079e-02  9.1237387319115272e-03  -2.3189933888620061e-03  -1.4729025478582507e-02  -1.8887545003315648e-02  1.8887763042592910e-02  6.5733636673411271e-04  -3.2745378767229890e-03  -1.9491250907359772e-03  -1.7898486698304270e-02  -2.5637741189692899e-02  -5.6642801141128527e-03  2.1728915909064901e-02  4.6345062116267779e-02  -1.4795352588743987e-02  -9.1364717531285649e-03  -2.2468068557697342e-03  -2.0602962354208998e-02  -6.4442101489737527e-04  -1.1839530247436422e-03  -9.8059545328141474e-03  -2.5578229963666630e-02  -3.5063962109481723e-03  -3.5086149353800561e-03  -1.2304892699815216e-02  1.0309235801960307e-02  -7.5597854519227903e-03  1.3982999600212875e-02  -5.6017471209212572e-03  -1.6187124596323127e-02  -2.7548536493092499e-02  -1.6515794094137268e-02  7.9163617797464447e-03  3.1120274762288173e-02  -4.6653003372610123e-03  -9.7865676416245082e-03  5.9927153795790947e-03  -3.5370443168410155e-02  -3.5864514626815468e-02  -3.5524271561202601e-02  -3.6155474268892103e-02  -6.6056859201411681e-03  1.0911484243113910e-01  1.2279971125760429e-01  2.0062798138571442e-02  -1.1228780662464712e-02  -1.3291790042378661e-02  -4.7956395349620321e-03  -2.7189234027484317e-02  -4.1397108985759528e-03  2.1441234628669478e-03  2.5010964650354853e-02  4.5555955455267964e-02  -2.8413779896862730e-03  4.5839024655827024e-02  1.1730990552893995e-01  1.1619676628880964e-01  9.0772099826125496e-02  1.9383521356953610e-02  3.0147380586017652e-03  2.2084284259468664e-02  1.6539687076915693e-02  2.2799672298863309e-02  -6.9177720983183838e-03  -6.7096529046760537e-03  1.1319538040564875e-01  -7.7556806804900931e-03  1.9257514034284540e-02  1.5151307181530278e-02  5.3498474387077735e-02  3.4232661401897412e-03  4.8086731743908158e-02  9.0233181440201121e-02  -9.6447309211947305e-03  1.2583350870161941e-01  6.4137973189356268e-02  -2.0902714337409759e-02  4.4991585309207445e-02  2.1418359743814546e-02  1.7140643972088410e-02  1.0974929279674757e-01  -7.9857277733264512e-03  9.7365609024697257e-03  2.0435134245919587e-02  1.2796065028432133e-01  1.4785003397840885e-02  2.7848100457996627e-02  1.2303233368056758e-01  5.8099915856207295e-02  2.3509284651781610e-02  1.2771016570072261e-01  4.7910547094213531e-02  9.6515373775217898e-03  5.2941928703104371e-03  3.4439521037535441e-02  5.7088085311825756e-02  2.1285105417850538e-02  -1.0676663074692597e-02  4.5450160191833074e-02  -4.3626953316435402e-02  -4.4049473333455276e-02  -4.3690839378251481e-02  -4.4160879047334588e-02  1.0928648434711745e-02  -7.7815380229861912e-03  8.6596873993919077e-03  -1.2766888913581472e-03  1.8218484116552060e-02  6.2415320342601950e-02  -3.1737369917665265e-03  5.4527301216764131e-03  3.9495921256960956e-02  6.8785317178924762e-02  5.6706231536748350e-02  7.1384281461703725e-02  6.0969431896792121e-03  6.9093854491086792e-02  2.6047310391237064e-02  7.6480585038849830e-02  1.2618140028148894e-01  3.2015209352682691e-02  5.5084429534462791e-02  3.8512499113605492e-02  2.0486205088879720e-02  6.4183895490134951e-02  6.8766328841200777e-02  1.1829679029570514e-01  -1.5450354573754306e-02  -8.0464254412955030e-02  -8.0505150010985946e-02  -8.5601177720137450e-02  -9.5215443100666305e-02  -8.6144071593490815e-02  -9.6266416657772400e-02  -8.0111988875468124e-02  -8.4742984987844022e-02  -8.0011288968143288e-02  -8.5067426307535457e-02  -9.5355300548312608e-02  -9.4951000839088973e-02  -5.8487777320496273e-02  -5.1233578160360921e-02  -6.1917748960314267e-02  -5.3261058305078435e-02  -7.1173144883209749e-02  -8.6577881912911603e-02  -8.7016234933568221e-02  -7.1616316397931257e-02  -9.9494145652021512e-02  -1.0704284017474801e-01  -7.3442941488410379e-02  -7.2712766639011175e-02  -9.2187308283380801e-02  -1.1017550836527400e-01  -1.1909089935717923e-01  -1.1888590158537519e-01  -1.2876313514425142e-01  -1.2993735439126061e-01  -4.6039705716158473e-02  -4.4245041463295762e-02  -4.5986572822111910e-02  -4.3883841821902865e-02  -5.1083776000909617e-02  -4.9320203293066432e-02  -5.1682825872166820e-02  -1.3647459053224192e-01  -1.3761654853145153e-01  -1.1977776949849717e-01  -1.1147875768870585e-01  -3.1097977046727426e-02  -4.2498089580281999e-02  -4.0809412945909201e-02  -2.7144188714513674e-02  -2.6875065114803361e-02  -2.4598164479954113e-02  -4.0290576235878818e-02  -4.6823563988722998e-02  -1.1799644931741114e-01  -1.1011681910527937e-01  -5.2916095543207503e-02  -4.6926932278269995e-02  -5.3492671989783740e-02  -1.0269184512902439e-01  -1.0695742996074424e-01  -1.1575728267604876e-01  -1.2143849025922145e-01  -1.2860122128706386e-01  -1.3219127686960963e-01  -1.2467547586070836e-01  -1.3726804474704618e-01  -1.3504238299418186e-01  -1.3681841465244876e-01  -1.0302830220759614e-01  -1.0799997867937235e-01  -1.1631938752591095e-01  -1.2205904933985084e-01  -1.1628384607361564e-01  -1.2914003756287601e-01  -1.3272538614777130e-01  -1.3771174089354038e-01  -1.3545881561898843e-01  -1.3753340816995885e-01  -8.0151655368775526e-02  -9.9447080249477099e-02  -1.0695687966722998e-01  -1.1019758056199006e-01  -1.1908355403857611e-01  -1.1874422404491319e-01  -1.2848434020956551e-01  -1.2966453420797208e-01  -1.3601823250959622e-01  -1.3775787942714865e-01  -7.0077520426396492e-02  -6.9816728084756405e-02  -7.6556306773034849e-02  -7.7364331323202820e-02  -1.2708108187264158e-01  -1.3954635274305996e-01  -1.3793725165954057e-01  -1.3880188565899959e-01  -1.3929737653794022e-01  -1.3734231955091208e-01  -5.3584057321120086e-02  -1.3936287055089797e-01  -1.3736218400918362e-01  -1.3924079130504369e-01  -1.4003348608683611e-01  -1.3821248866187438e-01  -1.3308387293292806e-01  -8.0321015462102630e-02  -1.3503170445438953e-01  -1.3524725394939247e-01  -4.7724465223853763e-02  -4.3990673533994329e-02  -4.6775780170073583e-02  -1.3461210062667076e-01  -1.3546286182503914e-01  -1.0914106105961638e-01  -1.0109918221590121e-01  -1.3669259753339358e-01  -1.3588606837064435e-01  -1.3717673569550490e-01  -1.3651562134593298e-01  -1.3305319083753128e-01  -1.3445275868462689e-01  -1.2919885294576508e-01  -1.2982852249157567e-01  -1.2480274517008687e-01  -1.2491741913689286e-01  -1.3323657066220060e-01  -1.3368810137034082e-01  -1.2896633483926365e-01  -1.2906672870514152e-01  -1.2421832543530517e-01  -1.2455900566091650e-01  -1.1970282019125930e-01  -1.2072728752447950e-01  -1.1575318952595653e-01  -1.1799061768374325e-01  -1.1339652608371388e-01  -1.1690688393052848e-01  -1.1266396091939057e-01  -1.1746469245171075e-01  -1.2000003579182325e-01  -1.2104930511348115e-01  -1.1595206276109607e-01  -1.1837634720905034e-01  -1.1359953491018163e-01  -1.1737730956343123e-01  -1.1283150026723004e-01  -1.1797652448191838e-01  -1.3404150600448236e-01  -1.3209459110552987e-01  -1.1823177443003917e-01  -1.1872593659283756e-01  -1.3441840926872076e-01  -1.3185277786536162e-01  -1.1382294325787680e-01  -1.1962919949060676e-01  -1.1612832566884049e-01  -1.2286865656452693e-01  -1.1950600358857254e-01  -1.1401598491925426e-01  -1.2013471971011969e-01  -1.1631154919056035e-01  -1.2350585672203691e-01  -1.1983954035780557e-01  -1.3270190664063211e-01  -1.3204003307986564e-01  -1.2552245023439401e-01  -1.1786830690169678e-01  -1.2187193834858810e-01  -1.1699669944889093e-01  -1.2079368031034937e-01  -1.1241744451862325e-01  -1.2055902932521338e-01  -1.1230139828380596e-01  -1.2133501174042818e-01  -1.1418575087569593e-01  -1.0023003458055209e-01  -1.1352758000375536e-01  -1.2890048925852590e-01  -1.2285381639270584e-01  -1.2150044842621802e-01  -1.0023426418792195e-01  -1.3035398681932556e-01  -1.2197066346701944e-01  -1.1976945363250333e-01  -1.2097766736765246e-01  -1.1964481722403356e-01  -9.1276361827570276e-02  -9.8168528024043814e-02  -8.2865685540311262e-02  -9.4385688720956151e-02  -1.1616236098041727e-01  -1.2371570556232354e-01  -9.7753158023522718e-02  -1.2923132496647255e-01  -4.0117489524815399e-02  -1.0268598339046188e-01  -1.3129897009670655e-01  -1.0895950145375008e-01  -7.6626772200817247e-02  -8.5923653235917080e-02  -1.0882528773639298e-01  -1.1092668437796067e-01  -1.1143765710150091e-01  -1.0260138244440209e-01  -1.1194500977770090e-01  -1.0477952524592435e-01  -1.1128419259833332e-01  -1.0353752560375284e-01  -1.0410026212992830e-01  -9.5690699891031170e-02  -1.1396191908725599e-01  -9.5286368530315524e-02  -8.8686877527645328e-02  -8.8101736448761389e-02  -8.3243754973142556e-02  -8.3931175107476094e-02  -8.0362436611685170e-02  -8.1982283416024190e-02  -1.1795932821888593e-01  -1.2300451922790928e-01  -1.1566417461389336e-01  -1.2357763128378230e-01  -9.1015533137358107e-02  -8.5941260722786905e-02  -1.0005971362488023e-01  -8.1297808312552095e-02  -1.1783197882559542e-01  -1.1908491806886400e-01  -7.1498408564092009e-02  -3.6333459981579996e-02  -4.2841734032507073e-02  -3.9702867787135644e-02  -1.0411424922384507e-01  -9.8112968162018727e-02  -1.2461268189753928e-01  -1.1537763470304588e-01  -1.1488571376098985e-01  -1.0074539171668270e-01  -1.0504224713695871e-01  -1.0261365980115586e-01  -1.0101233678268833e-01  -1.0329562360066934e-01  -1.0723786170017291e-01  -9.9510093711698569e-02  -8.9465900985025576e-02  -9.0152809273069762e-02  -9.0846363534274138e-02  -8.6134522586694948e-02  -8.1874159360225240e-02  -8.2423720995036642e-02  -7.3512381664362941e-02  -7.9127110668078982e-02  -8.0732453183942926e-02  -8.1627173375276307e-02  -7.7250756250873090e-02  -8.4492514002247499e-02  -7.7025063402766394e-02  -8.8212261259947716e-02  -8.7937928806712320e-02  -9.4359347679278782e-02  -9.3170780984824800e-02  -1.0267412836172068e-01  -9.7839830788749887e-02  -1.1291093513651397e-01  -1.0091919721122679e-01  -1.1743809835685799e-01  -1.0711512390474193e-01  -1.1268273901030090e-01  -1.0535302450107767e-01  -1.2994525507644575e-01  -1.1905210603341787e-01  -7.9867780405761840e-02  -9.3976375425745648e-02  -1.0604223780543293e-01  -1.0433195944332120e-01  -1.1723108631021184e-01  -8.2277125585099600e-02  -1.2693295783012501e-01  -7.1359396861989430e-02  -9.5786606920107625e-02  -8.7167865570033490e-02  -1.0730441185729134e-01  -9.6270704375580538e-02  -1.1679199597605391e-01  -7.9654077594170647e-02  -1.0260474318082793e-01  -1.0568662297234949e-01  -9.4778861647008633e-02  -9.1021270438024257e-02  -1.0801711700695582e-01  -8.4450746241927652e-02  -8.0891874713426043e-02  -8.9488198267127103e-02  -9.5704961157480381e-02  -1