<?xml version="1.0"?>
<VTKFile type="UnstructuredGrid"  version="0.1"  >
<UnstructuredGrid>
<Piece  NumberOfPoints="1297" NumberOfCells="2496">
<Points>
<DataArray  type="Float64"  NumberOfComponents="3"  format="ascii">0 0 0  0 1 0  1 1 0  1 0 0  1.1 -0.1 0  -0.1 -0.1 0  1.1 1.1 0  -0.1 1.1 0  0.2630554690418372 0.671007085375517 0  0.2601715425140397 0.3322848187015273 0  0.7412014666555179 0.3311729630741176 0  0.7430831820812218 0.6682622898778589 0  0.5017281802633035 0.5008692262258686 0  0 0.9499999999997918 0  0 0.8999999999995836 0  0 0.8499999999996529 0  0 0.7999999999999998 0  0 0.7500000000003466 0  0 0.7000000000006934 0  0 0.6500000000010401 0  0 0.6000000000013869 0  0 0.5500000000017335 0  0 0.5000000000020587 0  0 0.4500000000018723 0  0 0.4000000000016644 0  0 0.3500000000014564 0  0 0.3000000000012483 0  0 0.2500000000010403 0  0 0.2000000000008322 0  0 0.1500000000006241 0  0 0.100000000000416 0  0 0.05000000000020799 0  0.04999999999989965 0 0  0.09999999999981467 0 0  0.1499999999997036 0 0  0.1999999999995579 0 0  0.2499999999994121 0 0  0.2999999999992664 0 0  0.3499999999991206 0 0  0.3999999999989749 0 0  0.4499999999988292 0 0  0.4999999999986943 0 0  0.5499999999988151 0 0  0.5999999999989468 0 0  0.6499999999990784 0 0  0.69999999999921 0 0  0.7499999999993417 0 0  0.7999999999994734 0 0  0.8499999999996051 0 0  0.8999999999997368 0 0  0.9499999999998684 0 0  1 0.04999999999989965 0  1 0.09999999999981467 0  1 0.1499999999997036 0  1 0.1999999999995579 0  1 0.2499999999994121 0  1 0.2999999999992664 0  1 0.3499999999991206 0  1 0.3999999999989749 0  1 0.4499999999988292 0  1 0.4999999999986943 0  1 0.5499999999988151 0  1 0.5999999999989468 0  1 0.6499999999990784 0  1 0.69999999999921 0  1 0.7499999999993417 0  1 0.7999999999994734 0  1 0.8499999999996051 0  1 0.8999999999997368 0  1 0.9499999999998684 0  0.9499999999997918 1 0  0.8999999999995836 1 0  0.8499999999996529 1 0  0.7999999999999998 1 0  0.7500000000003466 1 0  0.7000000000006934 1 0  0.6500000000010401 1 0  0.6000000000013869 1 0  0.5500000000017335 1 0  0.5000000000020587 1 0  0.4500000000018723 1 0  0.4000000000016644 1 0  0.3500000000014564 1 0  0.3000000000012483 1 0  0.2500000000010403 1 0  0.2000000000008322 1 0  0.1500000000006241 1 0  0.100000000000416 1 0  0.05000000000020799 1 0  -0.1 1.05000000000004 0  -0.1 1.000000000000079 0  -0.1 0.9500000000001624 0  -0.1 0.9000000000003032 0  -0.1 0.850000000000444 0  -0.1 0.8000000000005848 0  -0.1 0.7500000000007256 0  -0.1 0.7000000000008665 0  -0.1 0.6500000000010508 0  -0.1 0.6000000000012352 0  -0.1 0.5500000000014196 0  -0.1 0.500000000001539 0  -0.1 0.4500000000014195 0  -0.1 0.4000000000013 0  -0.1 0.3500000000011588 0  -0.1 0.3000000000010178 0  -0.1 0.2500000000008986 0  -0.1 0.2000000000007579 0  -0.1 0.1500000000006174 0  -0.1 0.1000000000005272 0  -0.1 0.05000000000040083 0  -0.1 2.671196597248127e-13 0  -0.1 -0.0499999999998666 0  -0.0500000000000906 -0.1 0  -1.730560139634463e-13 -0.1 0  0.04999999999975802 -0.1 0  0.09999999999961506 -0.1 0  0.1499999999994613 -0.1 0  0.199999999999302 -0.1 0  0.2499999999991446 -0.1 0  0.2999999999990088 -0.1 0  0.3499999999988296 -0.1 0  0.3999999999986936 -0.1 0  0.4499999999985143 -0.1 0  0.4999999999984002 -0.1 0  0.5499999999985247 -0.1 0  0.5999999999986493 -0.1 0  0.6499999999987955 -0.1 0  0.6999999999989417 -0.1 0  0.7499999999990659 -0.1 0  0.7999999999992116 -0.1 0  0.8499999999993573 -0.1 0  0.8999999999994526 -0.1 0  0.949999999999584 -0.1 0  0.9999999999997226 -0.1 0  1.049999999999861 -0.1 0  1.1 -0.0500000000000906 0  1.1 -1.730560139634463e-13 0  1.1 0.04999999999975802 0  1.1 0.09999999999961506 0  1.1 0.1499999999994613 0  1.1 0.199999999999302 0  1.1 0.2499999999991446 0  1.1 0.2999999999990088 0  1.1 0.3499999999988296 0  1.1 0.3999999999986936 0  1.1 0.4499999999985143 0  1.1 0.4999999999984002 0  1.1 0.5499999999985247 0  1.1 0.5999999999986493 0  1.1 0.6499999999987955 0  1.1 0.6999999999989417 0  1.1 0.7499999999990659 0  1.1 0.7999999999992116 0  1.1 0.8499999999993573 0  1.1 0.8999999999994526 0  1.1 0.949999999999584 0  1.1 0.9999999999997226 0  1.1 1.049999999999861 0  1.05000000000004 1.1 0  1.000000000000079 1.1 0  0.9500000000001624 1.1 0  0.9000000000003032 1.1 0  0.850000000000444 1.1 0  0.8000000000005848 1.1 0  0.7500000000007256 1.1 0  0.7000000000008665 1.1 0  0.6500000000010508 1.1 0  0.6000000000012352 1.1 0  0.5500000000014196 1.1 0  0.500000000001539 1.1 0  0.4500000000014195 1.1 0  0.4000000000013 1.1 0  0.3500000000011588 1.1 0  0.3000000000010178 1.1 0  0.2500000000008986 1.1 0  0.2000000000007579 1.1 0  0.1500000000006174 1.1 0  0.1000000000005272 1.1 0  0.05000000000040083 1.1 0  2.671196597248127e-13 1.1 0  -0.0499999999998666 1.1 0  0.2456801160368604 0.6554418622771935 0  0.2326078604106459 0.6340761098507166 0  0.2218085733701476 0.6113615490672294 0  0.2132844678879171 0.5886529789800897 0  0.2068213834797523 0.5666389937868921 0  0.2016893739209688 0.5451838643101077 0  0.1982575110419886 0.5236448936080597 0  0.1976939826153396 0.5022317431197133 0  0.1981603639569289 0.4808481814231919 0  0.2011272578933303 0.4590251079820821 0  0.2057741295465444 0.4372236341609948 0  0.2120842917170707 0.4153618226297962 0  0.219778062620507 0.3928811836745159 0  0.230033189545617 0.3698289906723181 0  0.2428667799462256 0.3482552030691462 0  0.2789339118016247 0.3180635180660574 0  0.3025437517823301 0.3075122387253759 0  0.3278238488692286 0.2985787889017572 0  0.3534380275680761 0.2910166811453589 0  0.3786940568852976 0.2846617331407723 0  0.4034086019939527 0.2790440701535991 0  0.427833502090266 0.274494024920646 0  0.4522307876808146 0.2709520558882275 0  0.4766701217925842 0.268934425779652 0  0.5009557104915848 0.2682758063421803 0  0.5252144542330509 0.2690329486396785 0  0.5495328936954567 0.2711130887075033 0  0.5740447150644449 0.2743456988502652 0  0.5985758903290662 0.278975352903974 0  0.623548253611205 0.2843399114731665 0  0.6489037250742272 0.2906398194764148 0  0.6743317248907514 0.2979639468667555 0  0.6992992449374643 0.3066283458251193 0  0.7225942028741483 0.3168759509299495 0  0.7579854156270435 0.3469838805048519 0  0.7713653259466522 0.3677955990705948 0  0.7822637634501902 0.3904551282413259 0  0.7906093555515176 0.4129842916429479 0  0.7973012273402215 0.4349868888418134 0  0.8019019980411889 0.4568246000476525 0  0.8045566005649938 0.4782938196802443 0  0.8051507559794664 0.4993103408278008 0  0.8040546087636571 0.52023744173452 0  0.8013433650110618 0.5412965463226734 0  0.7970650053328783 0.5628438079250926 0  0.7911449997162735 0.5847652895952086 0  0.7833774526081958 0.6078361727698122 0  0.772993628441853 0.630843606580987 0  0.7600126295373903 0.652206568422683 0  0.72445088123671 0.682761685599624 0  0.701026829261959 0.6930339725752339 0  0.676365970544476 0.7020605944906462 0  0.6509396528267454 0.7100648734780118 0  0.6255505061549388 0.7169418683350357 0  0.6003839583148634 0.7227316546473236 0  0.5757812500778938 0.7275746271658404 0  0.5513292455211125 0.730937141404836 0  0.52710334503542 0.7330297069974713 0  0.5029784627896686 0.7337017024034977 0  0.4788008786854377 0.7330219051482805 0  0.4545053983032457 0.7309171989849091 0  0.4302239509622421 0.7274956660613671 0  0.4056642951117385 0.7230656005551024 0  0.3806354761355058 0.7176915583232553 0  0.3553884250785327 0.7113458192662417 0  0.3299067736043957 0.7039357035138788 0  0.3048118183917156 0.6952121577920267 0  0.281531271904375 0.6848613206185359 0  0.3635967497563697 0.3133554615214064 0  0.2335413130481047 0.4468309197953418 0  0.3655455298602901 0.6890516471034908 0  0.2343971968325781 0.5569862054797305 0  0.7667787735257588 0.5755484433857668 0  0.6146660109421634 0.6950325360639596 0  0.6374501426657528 0.3121823735963881 0  0.7713539362846126 0.4440006188228436 0  0.7747867173437594 0.5095881076530803 0  0.562080333205021 0.2973906163975515 0  0.4400796241073724 0.2996945762172276 0  0.4407445266931082 0.7026360869006574 0  0.5397510901581357 0.7057019870428937 0  0.2286416913507898 0.4909697568922356 0  0.2424598118352613 0.4019968231266992 0  0.4888074068813411 0.2983928859966662 0  0.2512377479565717 0.6003641345837851 0  0.7518894045984801 0.3978596890747003 0  0.4905836419643674 0.7069462489940289 0  0.6659698594505574 0.6815221916825097 0  0.3113733351088026 0.3299127233387131 0  0.6910321356618865 0.3305967959211358 0  0.3145427394467351 0.6754720353781871 0  0.7489087595572422 0.6227655493425296 0  0.2624338526363882 0.3572916364481307 0  0.2674699750162851 0.644833819206876 0  0.7163923579848923 0.6646856971636682 0  0.7397294906905881 0.355476915260364 0  0.3399715430737967 0.6827406599566154 0  0.3499637882293105 0.6618054523583108 0  0.3757755463786628 0.666719749798326 0  0.3594862353170005 0.6399623724712997 0  0.3867523051112178 0.6439749429666063 0  0.3690601818541183 0.6151531664789894 0  0.4020453429541891 0.6186820862928988 0  0.3811833764858593 0.5850500161482297 0  0.3358580962949221 0.6102902798905759 0  0.4215781409750132 0.5873408416613995 0  0.396646939579021 0.5497384217393905 0  0.3481998693678758 0.5536849789568836 0  0.3678347807823468 0.5153845679484031 0  0.3206294837902647 0.5171990420464555 0  0.3370103214279505 0.4836113148814173 0  0.3861500468167213 0.4775434597523021 0  0.3610805739116518 0.4455555348458649 0  0.4049020531596328 0.4384207016666417 0  0.3820236178470096 0.4078304448780962 0  0.4214312276665083 0.3934865420484147 0  0.34052687806304 0.4121657765799085 0  0.3943937399401969 0.3730084084091778 0  0.4336191290807995 0.62278342773256 0  0.4622598754982345 0.5968096754285316 0  0.4839057790795708 0.6248759851512975 0  0.504735351232672 0.5988727882570571 0  0.5248523078207029 0.6249280262502979 0  0.5461737763396711 0.5986625669151771 0  0.5654646032569876 0.6242567777677187 0  0.5873783770090858 0.5979993252973519 0  0.6067918824930755 0.6253248004725226 0  0.6291484169421978 0.5895154089822027 0  0.6111937989029113 
[...]
<PointData  Scalars="u"> 
<DataArray  type="Float64"  Name="u"  format="ascii">-1.7940635161034684e-18  -4.4344211774692896e-18  3.0706546572362185e-19  -5.2345764379757799e-19  2.5606110139177327e-20  6.7110683618678903e-20  -1.1230550726047461e-20  2.2542236786503206e-19  -7.1910860161676374e-02  -7.2587693827508126e-02  -7.0810461915465098e-02  -7.0145084711164027e-02  1.3184653817629605e-01  -4.7013128792564310e-18  -1.4533502303540549e-17  -8.3910599255162782e-18  -1.1260756836838716e-17  3.6353240420368839e-18  -1.5817530972607261e-17  -1.7591970990407045e-17  -2.6712444361600517e-17  1.1020115958832728e-17  -3.9683010605352691e-17  -4.7802360170593779e-17  1.5231242198184530e-17  -5.5454341580896861e-18  -1.9434855819663878e-17  1.4971895777689320e-17  -1.9620900579409405e-17  1.7509510233429309e-17  -1.4864809682788116e-18  -2.7670598097854185e-18  -2.9120242102429766e-18  -1.3843912307517187e-17  -1.3230691779178516e-18  -1.5173436054650605e-17  -1.4695678698275182e-18  -8.8510370502493725e-18  -3.4323779308011978e-17  -3.5370059372827549e-17  1.0001333567673566e-17  -1.5614235112597449e-17  -8.1390098455678192e-19  3.9599365990765487e-17  -1.8966070293760925e-17  1.8596232952432243e-18  -2.9000396606055210e-17  -1.8805218862870824e-17  0.0000000000000000e+00  -4.1418205703898673e-18  2.3331355394814355e-17  -2.4501036209657917e-17  -3.3977652526574440e-17  -2.4027522053719524e-17  -1.9118173882034786e-17  -2.1370385618947851e-17  -4.5634385375998136e-18  -1.7458714264985359e-18  -6.0896049069148093e-18  -9.4950442467693599e-18  -7.2146224438883047e-19  -1.6864754459358273e-17  -2.0429016505218691e-17  -2.9096415343768473e-18  -1.1004969462072530e-17  -1.5434419696854721e-17  -7.2993858304818917e-18  -1.1015319826458827e-17  -2.2914719349098852e-17  6.6160744132298217e-18  -1.2266784466864923e-17  -1.5353274805443171e-17  -1.8159441543309705e-17  2.8692706745736707e-18  -3.1606182418119980e-17  -3.2861365508751269e-17  -1.8662922198098675e-17  -1.3895230826565862e-17  -4.3534340929081329e-17  -5.7645172281727233e-17  -1.5825767563978534e-17  2.2346632669882060e-17  -4.5611289941784015e-18  -2.2938226419209732e-17  -4.2855893696722239e-18  -4.4979223120108112e-18  1.5733502786566373e-17  -6.0692700779362054e-18  3.3793171936947978e-18  -1.4316303563034359e-19  -2.2856197213640500e-19  -1.4623342470673279e-18  -2.7281028869384342e-18  -1.8348941294415848e-18  -6.3487542858501920e-20  -1.0177826408462367e-19  -1.5634096801038843e-18  -3.3998142072257051e-18  -2.3190245159457375e-18  -8.4504365982495238e-20  -5.5402655891618038e-18  -6.8060813321586760e-18  9.4239415514460625e-19  -2.9758852970002793e-19  -2.3404677957039207e-18  -3.8379075074006609e-19  -1.0599409993508667e-18  8.1720332769103542e-19  7.0036287015315960e-19  -7.0194236716216859e-19  -1.8519216184755477e-19  -2.8794005652918142e-20  -4.9152122922217983e-20  -1.2008216483300029e-19  -8.4827443189421883e-19  -1.2410154310795804e-18  -1.1826061618728756e-18  -8.4354926402780620e-19  -1.8253745842438732e-19  -2.2690545754536404e-18  -5.0277705856090591e-18  -3.9745537394371235e-18  -1.8018455973267230e-19  -1.3156571488036713e-18  1.0838217466037444e-18  2.2401893913196538e-18  -1.2737627560655742e-19  -1.6771908608447345e-18  -3.0147737072041153e-18  -2.8736867351639109e-18  -1.2547234521280916e-18  9.8285770219653330e-19  2.5158043052518105e-18  5.2432079935588406e-19  -3.5477977348855599e-19  3.1156520015874236e-19  -4.4778004365156626e-19  -3.1941929988296719e-18  -5.4327159275049411e-18  -3.6787558892678527e-18  -2.8636007406757149e-18  -2.8353828650266604e-18  -6.0916285094067813e-19  1.8819270254697677e-19  1.2862393672791753e-19  -1.3269555684414769e-18  -5.0072981882662406e-19  -2.2603579348814894e-18  -2.6712357061485176e-18  -1.0771565787746907e-18  -8.5796428946755638e-19  -1.5894806960961198e-18  -1.2267648573706704e-18  -2.0472859861850917e-18  -2.2668054388958633e-18  1.8422925879967481e-19  4.8487888811934150e-19  -1.8753684072791247e-19  1.6124680396727227e-19  -1.6805935062034409e-19  -1.5377431389915897e-18  -2.2316680573366940e-18  -7.6937924617589126e-19  -4.8442181829336373e-18  -3.9738575053376078e-18  -4.8344212992019637e-18  -1.6419847969884668e-18  -5.0755647322201075e-18  -8.7104768148248299e-18  -6.8757141137274348e-18  -2.5647889210577859e-18  2.9814130003529274e-18  2.2313346066407444e-19  -3.5678133915092824e-18  -1.6538538243871709e-18  -6.8611636425724968e-20  9.4221925801500545e-19  2.2346525108428067e-19  -2.8226797226001365e-19  -2.1843635954296085e-19  -2.0908452747806601e-19  -7.1163616723876194e-02  -6.6035984228365235e-02  -6.0793354350042614e-02  -5.6222943955030177e-02  -5.2791311065808720e-02  -5.0635002074405147e-02  -4.9596083443182483e-02  -4.8717133446338559e-02  -4.9378956033242924e-02  -5.0602191144359703e-02  -5.2688591463714546e-02  -5.5933090534868363e-02  -6.0651603113616490e-02  -6.6294020449090191e-02  -7.1588412910574245e-02  -7.3532691249960591e-02  -7.0683357145152267e-02  -6.6771126325133684e-02  -6.2911764524214375e-02  -5.9592415154957876e-02  -5.7437823459026510e-02  -5.5819894922523428e-02  -5.4765328114841583e-02  -5.4141298074295463e-02  -5.3815947479407211e-02  -5.3809385473484662e-02  -5.4278787235609902e-02  -5.5073228126489245e-02  -5.6743563486233030e-02  -5.8936575704861070e-02  -6.1991465213142027e-02  -6.5701089958257186e-02  -6.9483976988425983e-02  -7.2104340263742642e-02  -6.9358272980008323e-02  -6.4491096878065521e-02  -5.9160454279411329e-02  -5.4486369692835504e-02  -5.1068311917530126e-02  -4.8554360242720092e-02  -4.7027725153832377e-02  -4.6383319896053127e-02  -4.6584938815844343e-02  -4.7720377309221532e-02  -5.0040501826513116e-02  -5.3465732254830874e-02  -5.8288330070821757e-02  -6.3749844561491159e-02  -6.8797300776362230e-02  -7.1335227895304304e-02  -6.8426405272048851e-02  -6.4806625617788480e-02  -6.1271265119120441e-02  -5.8422133306593835e-02  -5.6279486796263031e-02  -5.4585344266390314e-02  -5.3726645078021308e-02  -5.3135390627893360e-02  -5.2882856225454786e-02  -5.3070835817807721e-02  -5.3586244797817699e-02  -5.4664765812919194e-02  -5.6294271653995663e-02  -5.8615121735309583e-02  -6.1942141295077108e-02  -6.5886539286206677e-02  -6.9847914425137200e-02  -7.2714722881561528e-02  -1.4040959655488771e-02  -8.7164933191351216e-03  -1.3212558562622139e-02  -8.9131467291890046e-03  -1.1764726206748831e-02  -9.7071027066230019e-03  -1.3432001680046183e-02  -9.1227110214679892e-03  -3.6557897419156652e-03  -5.7321197713655443e-03  -3.8269638009837382e-03  -3.4461561902605397e-03  -2.7999746770558573e-03  -5.4041486632073667e-03  -1.9785157571234380e-02  8.6263475021915745e-04  -1.3694267167073294e-02  -1.3713885647277284e-02  -2.0547730014198462e-03  -1.8388774029909991e-02  -2.4567661151581436e-02  -2.2361524111923790e-02  -2.5664373486928637e-02  -2.2706467605267584e-02  -3.3125541625919901e-02  -3.0014692099314975e-02  -3.1490212599115747e-02  -3.2069189244180986e-02  -1.8884194366432482e-02  5.8681359153257926e-03  1.3294933619137967e-02  3.1284211064992171e-02  4.0427871131042944e-02  5.7704726205731402e-02  6.9048168123619941e-02  8.1969190858569158e-02  4.3422325753413323e-02  9.5532979736784207e-02  1.0373268160038455e-01  7.9276149150579872e-02  9.8073089151752307e-02  7.0469829126234174e-02  8.0583736168017159e-02  1.0533191877605587e-01  8.5243983207419424e-02  1.0167780618156007e-01  7.7207346668000124e-02  8.2630557247834968e-02  5.9164528863099163e-02  5.7563602952701916e-02  7.5542910755231035e-02  9.9215853658209535e-02  8.1571619261666700e-02  1.0100063715285350e-01  8.0974248675434707e-02  9.7533650550053946e-02  7.5420561838106970e-02  8.8244596136368258e-02  6.2327262531406732e-02  7.7199135150145148e-02  1.0048373841003189e-01  8.0184488443542479e-02  9.9639862082922914e-02  5.8064171346171298e-02  5.4448082326845199e-02  4.0950643656828600e-02  4.3886843338081155e-02  5.2769152242588303e-02  3.8646821675801024e-02  5.9388756112655233e-02  8.4150100366947547e-02  1.9047360038182668e-02  3.2623614731433076e-02  4.7482315415370263e-02  4.1676954897030577e-02  5.4651082286225387e-02  8.6830436295873101e-02  5.1060727992577201e-02  8.0091240463583457e-02  1.0794715963558704e-01  9.3202825178913734e-02  6.9501010375834352e-02  7.5555006241213959e-02  1.0447394346565468e-01  7.9958877649466187e-02  5.7276865040922408e-02  5.7125931318947124e-02  7.0905963007834860e-02  3.6471772554172187e-02  3.0914775239823517e-02  1.3867264203787205e-02  1.3009261717254524e-02  1.1640280598321023e-01  3.0698715084718872e-02  3.3286233480017594e-02  2.3632763773513785e-02  4.0456577370920919e-02  1.1111125287341339e-02  9.0152710266550896e-03  2.1663789034345585e-02  4.7989171755620605e-02  2.2111912206036036e-02  1.3675435096941491e-02  3.0171975744159477e-02  5.8532209930472541e-02  3.7901605834845961e-02  3.2628008136140113e-02  5.3663271908872129e-02  3.1257210535728545e-02  1.4525935913911336e-02  9.7759344937308548e-03  2.0257609466661532e-02  1.8003492634133852e-02  3.0830334795079736e-02  5.1071847763867403e-03  5.3060156019428290e-02  1.1994596076608180e-01  1.0295582109000808e-02  1.1966980504586301e-01  7.3435478580112470e-02  4.4667794825659128e-02  6.8361277307001880e-02  4.2280423779728397e-02  1.9203997618402947e-02  1.4862018513758714e-02  3.2722836788423998e-02  5.1666172275363839e-02  3.2254210090118599e-02  2.3954193068443253e-02  1.0820202020884617e-01  -2.6270276059485909e-03  -6.0166243251194851e-03  4.9578232191779134e-02  2.4969671065646522e-02  2.9908802569310472e-02  4.3110880000669968e-02  3.0414928872914148e-02  1.2315148271706718e-02  3.0910817736578805e-02  1.5893697172666345e-02  8.7272059208740975e-03  -1.8800687709702147e-03  -1.3655862410534451e-02  -1.8817627022481621e-02  1.7511214603934597e-02  -1.0009634352463365e-03  -3.0472737387707647e-03  -7.1638512221748607e-04  -1.6023748442479929e-02  -2.5254317718356435e-02  -5.3467985132405818e-03  2.2077036549425045e-02  4.6712748505485478e-02  -1.2470400273264012e-02  -8.6681711909293874e-03  -2.3508886597498153e-03  -1.9208432784850307e-02  -1.4569692909456888e-03  -2.1543125970306769e-03  -1.0456636081202042e-02  -2.4698197904249316e-02  -2.7915045950399589e-03  -3.1768643899262911e-03  -1.0995897473841245e-02  1.1570423322633468e-02  -6.6206625642215907e-03  1.5204107742898106e-02  -4.9325105649798036e-03  -1.4436352840826262e-02  -2.4233720893771040e-02  -1.2786002836952741e-02  9.4547693276457317e-03  3.0526501983169741e-02  -1.8781325435452162e-03  -9.5104641400448053e-03  5.8524280025715261e-03  -3.3583635028082162e-02  -3.3277029876704341e-02  -3.1139518166141144e-02  -3.2476304911978879e-02  -5.2967311511531593e-03  1.0901623962989816e-01  1.2342325093579538e-01  2.1221691605278970e-02  -1.2126041215596649e-02  -1.4455600365059858e-02  -4.7174944877742108e-03  -2.4443162161848581e-02  -4.8423334413731393e-03  4.1835220415391968e-03  2.5544134333218005e-02  4.6918172001510730e-02  -3.7001032476315200e-03  4.5052502655340707e-02  1.1727628228563138e-01  1.1641785459111074e-01  9.1686222459747807e-02  1.9992064370840106e-02  4.2195176956795139e-03  2.2424278086705229e-02  1.5998132331415595e-02  2.3120357066493073e-02  -8.7674870534041605e-03  -5.8730621248837215e-03  1.1404539802359630e-01  -4.7670930263506084e-03  1.9943454165745372e-02  1.5515443723721781e-02  5.3883463950063895e-02  5.3225948927367941e-03  4.8458721133116736e-02  9.1258648842459822e-02  -8.7604125522600697e-03  1.2597234371880436e-01  6.4337426242356097e-02  -1.7680015599347114e-02  4.5041829042058681e-02  2.1097716123412793e-02  1.8046229976654754e-02  1.0976935418165801e-01  -9.5965994520447323e-03  9.3845806536353108e-03  2.0836399008944757e-02  1.2857042001987826e-01  1.3681517702392475e-02  2.7591926937173425e-02  1.2344239300476383e-01  5.9165925696645964e-02  2.2795884357178060e-02  1.2789294128720013e-01  4.8376491649960572e-02  8.8360439574658150e-03  6.9053638253566687e-03  3.5888549512903434e-02  5.7751151374965767e-02  2.0572360106454420e-02  -9.6438160159501660e-03  4.6344260573274065e-02  -4.1167962251782972e-02  -3.9514214251799622e-02  -4.0448172806496090e-02  -3.8902318166118395e-02  1.1128401761459001e-02  -5.8201464947617359e-03  9.7375820282083851e-03  -1.9066672496901684e-03  1.8086622205666664e-02  6.3489179765980799e-02  -1.8896940361805455e-03  7.3938604032388238e-03  3.9099735109356389e-02  6.9581249212911811e-02  5.6260320226145862e-02  7.1961833229609418e-02  7.7089448161114819e-03  6.9525604974927949e-02  2.7447623270042649e-02  7.7490775763756445e-02  1.2649856380920493e-01  3.1352642834752739e-02  5.4645788385762763e-02  3.8052561720950846e-02  1.9842210855223176e-02  6.3252190352390547e-02  6.8889677935974253e-02  1.1899925266988041e-01  -1.4001015027255120e-02  -8.0055004305624497e-02  -8.0320421332995148e-02  -8.5309619272069384e-02  -9.4093007717948193e-02  -8.5027382063937465e-02  -9.3663745288492445e-02  -8.1456322411415163e-02  -8.5856642244477560e-02  -8.1075262760369277e-02  -8.5281600838131286e-02  -9.3900292092576235e-02  -9.4970759922111889e-02  -5.8699489376379324e-02  -5.3674818472951857e-02  -6.3386394363800058e-02  -5.4422167351327037e-02  -7.2012744296256467e-02  -8.6295739825893100e-02  -8.4467809894732390e-02  -6.9411762436007052e-02  -9.5351194654474308e-02  -1.0275397239364023e-01  -7.0991317657803268e-02  -7.3615146794987998e-02  -9.1850829485272997e-02  -1.0647072692575621e-01  -1.1563592586216025e-01  -1.1534530401975837e-01  -1.2590860220744046e-01  -1.2724031235349248e-01  -4.6011731648154669e-02  -4.6032944327833787e-02  -4.7639143100416760e-02  -4.4095743946720313e-02  -5.1935761932419507e-02  -4.8360682357500830e-02  -5.2956178463882293e-02  -1.3425250895382215e-01  -1.3561815779849731e-01  -1.1655805415171010e-01  -1.0804519490582178e-01  -2.8964401711097629e-02  -4.2126288309711296e-02  -3.8227279237495339e-02  -2.2792262488425561e-02  -2.4317316473754610e-02  -1.9643603559524752e-02  -3.9160072437700498e-02  -4.7153607242274811e-02  -1.1481186260744196e-01  -1.0656895402139470e-01  -5.3823037024507234e-02  -4.8836811779702491e-02  -5.6030584032522923e-02  -1.0155425678157133e-01  -1.0575459323768745e-01  -1.1548827529503206e-01  -1.2147670630786166e-01  -1.2928070889920795e-01  -1.3312234209434998e-01  -1.2509722677886029e-01  -1.3868611267426098e-01  -1.3637690772022254e-01  -1.3838001036093003e-01  -1.0092970384430260e-01  -1.0596654080013743e-01  -1.1500773788934572e-01  -1.2111495346345984e-01  -1.1520683749499948e-01  -1.2867249534614952e-01  -1.3259679930390578e-01  -1.3789570374909280e-01  -1.3546495846915749e-01  -1.3798197210371588e-01  -8.0695421399228154e-02  -9.6110952381309026e-02  -1.0357781149831445e-01  -1.0738338576982101e-01  -1.1664482704801615e-01  -1.1628423256378805e-01  -1.2677055344828486e-01  -1.2820901725027112e-01  -1.3504974483330712e-01  -1.3720860152925582e-01  -6.7827204632633892e-02  -7.0770317382137862e-02  -7.7061586057678377e-02  -7.5153235525190820e-02  -1.2528423745233613e-01  -1.4007076477258851e-01  -1.3833915360094828e-01  -1.3855226389887845e-01  -1.4122691743489976e-01  -1.3919945538536149e-01  -5.2315079915512402e-02  -1.3964246442389697e-01  -1.3726287237544665e-01  -1.3762846105354537e-01  -1.3878855950018781e-01  -1.3670974399114028e-01  -1.3066584735270170e-01  -7.7549466249437524e-02  -1.3588016418268495e-01  -1.3769512096946540e-01  -4.8707644557033053e-02  -4.3888831242970619e-02  -4.8228887915269282e-02  -1.3692469350561987e-01  -1.3635757117204433e-01  -1.0570694581082907e-01  -9.7020258831092152e-02  -1.3753202454936650e-01  -1.3649662613532390e-01  -1.3632489397471398e-01  -1.3544547505623739e-01  -1.3376749513752370e-01  -1.3477318830203855e-01  -1.2974173724720467e-01  -1.2998301108126623e-01  -1.2514476581599265e-01  -1.2494770080965248e-01  -1.3569998027221428e-01  -1.3567514473307779e-01  -1.3139522460440448e-01  -1.3107270820023817e-01  -1.2655191416727987e-01  -1.2652845367215268e-01  -1.2188770331481090e-01  -1.2260997238944994e-01  -1.1777291498854169e-01  -1.1975613608138404e-01  -1.1526824816959270e-01  -1.1855267832408650e-01  -1.1442528604196969e-01  -1.1899874302578931e-01  -1.2011278923648924e-01  -1.2091252582593132e-01  -1.1584245251013967e-01  -1.1807041480316305e-01  -1.1330580205491107e-01  -1.1692519505024257e-01  -1.1241292600720412e-01  -1.1741222283411963e-01  -1.3451086867927459e-01  -1.3202039845955885e-01  -1.1611442409537379e-01  -1.1553754948040158e-01  -1.3340079897726534e-01  -1.3047621090073877e-01  -1.1550069220503691e-01  -1.2105073809014245e-01  -1.1775924065477711e-01  -1.2417624423886206e-01  -1.2111197388532098e-01  -1.1352368411203030e-01  -1.1948934972366414e-01  -1.1580728312721660e-01  -1.2280644795755077e-01  -1.1935750833268061e-01  -1.3296738180557993e-01  -1.3274659544424350e-01  -1.2609949455855093e-01  -1.1705691472047369e-01  -1.2092001566430188e-01  -1.1807862338340695e-01  -1.2166142225418421e-01  -1.1186245774642448e-01  -1.2163747066023139e-01  -1.1372015402031294e-01  -1.2419775598030124e-01  -1.1388846548943481e-01  -1.0215971103531453e-01  -1.1514773192228069e-01  -1.3030578364085496e-01  -1.2439045133969329e-01  -1.2203600911425942e-01  -9.9990084104291693e-02  -1.2984290264055268e-01  -1.2173248991721755e-01  -1.1963360990277945e-01  -1.2014867519214194e-01  -1.2126759842224721e-01  -8.7369466363253698e-02  -9.5077329527354884e-02  -7.8101375935129946e-02  -8.9747576622433711e-02  -1.1616115331410291e-01  -1.2314925840141806e-01  -9.8237544182200542e-02  -1.2904047516716918e-01  -3.9961030683765573e-02  -9.9171999013240128e-02  -1.2956659378746946e-01  -1.0937084857114750e-01  -7.1126813206428774e-02  -8.0646792311405716e-02  -1.1130671617777649e-01  -1.1080566663720906e-01  -1.1020150862711024e-01  -9.9790252549793929e-02  -1.0938826623705736e-01  -1.0203429017903071e-01  -1.0860336634273599e-01  -1.0039212079862668e-01  -1.0097494291132623e-01  -9.1786027129932821e-02  -1.1156054627338942e-01  -9.1723977531283030e-02  -8.4066068666263510e-02  -8.3965144563776309e-02  -7.8029205091890527e-02  -7.9456192050266258e-02  -7.4807719360010461e-02  -7.7429541164232257e-02  -1.1886700574059229e-01  -1.2400332602661215e-01  -1.1446028812476181e-01  -1.2188587849850628e-01  -8.6696983350153564e-02  -8.1394702117695492e-02  -9.9368390761900058e-02  -7.5842890486643277e-02  -1.1741559400554274e-01  -1.2018538222280406e-01  -6.5474661558535860e-02  -3.6855382561030964e-02  -4.3641948857528819e-02  -4.1180677119988934e-02  -1.0315567685590098e-01  -9.6418326969118173e-02  -1.2474623187681519e-01  -1.1578858724812871e-01  -1.1486947523992953e-01  -1.0185445810831943e-01  -1.0617537088248270e-01  -1.0217184852489192e-01  -1.0106107100671959e-01  -1.0294859686767986e-01  -1.0697422743487392e-01  -9.9008160637704304e-02  -8.8417351110040357e-02  -8.9047036643542354e-02  -9.0391561931343276e-02  -8.5309509499331138e-02  -8.0111411187901729e-02  -8.0987496499777892e-02  -7.1182079752672614e-02  -7.7269024117762264e-02  -7.9906158716558082e-02  -8.0555860820253303e-02  -7.5228537785431926e-02  -8.3418385668603254e-02  -7.5162502687503838e-02  -8.7231527187392702e-02  -8.7618733308440389e-02  -9.4071713003524626e-02  -9.2614299793488175e-02  -1.0271738375423367e-01  -9.7829334184073968e-02  -1.1343316259337294e-01  -1.0153120380308318e-01  -1.1845344338742952e-01  -1.0612111825578358e-01  -1.1142305831523464e-01  -1.0456267237333378e-01  -1.3046940698120008e-01  -1.1884386980324577e-01  -7.5189401695674493e-02  -9.4478689624743581e-02  -1.0669863837517576e-01  -1.0527052785627897e-01  -1.1632161669114062e-01  -7.8938558139180784e-02  -1.2583054070424801e-01  -6.5316986606272845e-02  -9.4948570920922890e-02  -8.3985280346229665e-02  -1.0753571311609156e-01  -9.7375941200352964e-02  -1.1823222318468032e-01  -7.6132336994539779e-02  -1.0445080350486087e-01  -1.0758330988996236e-01  -9.5499622239849785e-02  -8.8072328002186423e-02  -1.0702106686667172e-01  -8.0849729075175458e-02  -7.7254853739638321e-02  -8.5930153135557602e-02  -9.172928027611364