<?xml version="1.0"?>
<VTKFile type="UnstructuredGrid"  version="0.1"  >
<UnstructuredGrid>
<Piece  NumberOfPoints="1297" NumberOfCells="2496">
<Points>
<DataArray  type="Float64"  NumberOfComponents="3"  format="ascii">0 0 0  0 1 0  1 1 0  1 0 0  1.1 -0.1 0  -0.1 -0.1 0  1.1 1.1 0  -0.1 1.1 0  0.2374476451770103 0.7119149646949933 0  0.237642105289171 0.2882282884065658 0  0.7626086096775648 0.2878958134101963 0  0.7625217131577395 0.7118288329571609 0  0.4999462732506006 0.4999017295678597 0  0 0.9499999999997918 0  0 0.8999999999995836 0  0 0.8499999999996529 0  0 0.7999999999999998 0  0 0.7500000000003466 0  0 0.7000000000006934 0  0 0.6500000000010401 0  0 0.6000000000013869 0  0 0.5500000000017335 0  0 0.5000000000020587 0  0 0.4500000000018723 0  0 0.4000000000016644 0  0 0.3500000000014564 0  0 0.3000000000012483 0  0 0.2500000000010403 0  0 0.2000000000008322 0  0 0.1500000000006241 0  0 0.100000000000416 0  0 0.05000000000020799 0  0.04999999999989965 0 0  0.09999999999981467 0 0  0.1499999999997036 0 0  0.1999999999995579 0 0  0.2499999999994121 0 0  0.2999999999992664 0 0  0.3499999999991206 0 0  0.3999999999989749 0 0  0.4499999999988292 0 0  0.4999999999986943 0 0  0.5499999999988151 0 0  0.5999999999989468 0 0  0.6499999999990784 0 0  0.69999999999921 0 0  0.7499999999993417 0 0  0.7999999999994734 0 0  0.8499999999996051 0 0  0.8999999999997368 0 0  0.9499999999998684 0 0  1 0.04999999999989965 0  1 0.09999999999981467 0  1 0.1499999999997036 0  1 0.1999999999995579 0  1 0.2499999999994121 0  1 0.2999999999992664 0  1 0.3499999999991206 0  1 0.3999999999989749 0  1 0.4499999999988292 0  1 0.4999999999986943 0  1 0.5499999999988151 0  1 0.5999999999989468 0  1 0.6499999999990784 0  1 0.69999999999921 0  1 0.7499999999993417 0  1 0.7999999999994734 0  1 0.8499999999996051 0  1 0.8999999999997368 0  1 0.9499999999998684 0  0.9499999999997918 1 0  0.8999999999995836 1 0  0.8499999999996529 1 0  0.7999999999999998 1 0  0.7500000000003466 1 0  0.7000000000006934 1 0  0.6500000000010401 1 0  0.6000000000013869 1 0  0.5500000000017335 1 0  0.5000000000020587 1 0  0.4500000000018723 1 0  0.4000000000016644 1 0  0.3500000000014564 1 0  0.3000000000012483 1 0  0.2500000000010403 1 0  0.2000000000008322 1 0  0.1500000000006241 1 0  0.100000000000416 1 0  0.05000000000020799 1 0  -0.1 1.05000000000004 0  -0.1 1.000000000000079 0  -0.1 0.9500000000001624 0  -0.1 0.9000000000003032 0  -0.1 0.850000000000444 0  -0.1 0.8000000000005848 0  -0.1 0.7500000000007256 0  -0.1 0.7000000000008665 0  -0.1 0.6500000000010508 0  -0.1 0.6000000000012352 0  -0.1 0.5500000000014196 0  -0.1 0.500000000001539 0  -0.1 0.4500000000014195 0  -0.1 0.4000000000013 0  -0.1 0.3500000000011588 0  -0.1 0.3000000000010178 0  -0.1 0.2500000000008986 0  -0.1 0.2000000000007579 0  -0.1 0.1500000000006174 0  -0.1 0.1000000000005272 0  -0.1 0.05000000000040083 0  -0.1 2.671196597248127e-13 0  -0.1 -0.0499999999998666 0  -0.0500000000000906 -0.1 0  -1.730560139634463e-13 -0.1 0  0.04999999999975802 -0.1 0  0.09999999999961506 -0.1 0  0.1499999999994613 -0.1 0  0.199999999999302 -0.1 0  0.2499999999991446 -0.1 0  0.2999999999990088 -0.1 0  0.3499999999988296 -0.1 0  0.3999999999986936 -0.1 0  0.4499999999985143 -0.1 0  0.4999999999984002 -0.1 0  0.5499999999985247 -0.1 0  0.5999999999986493 -0.1 0  0.6499999999987955 -0.1 0  0.6999999999989417 -0.1 0  0.7499999999990659 -0.1 0  0.7999999999992116 -0.1 0  0.8499999999993573 -0.1 0  0.8999999999994526 -0.1 0  0.949999999999584 -0.1 0  0.9999999999997226 -0.1 0  1.049999999999861 -0.1 0  1.1 -0.0500000000000906 0  1.1 -1.730560139634463e-13 0  1.1 0.04999999999975802 0  1.1 0.09999999999961506 0  1.1 0.1499999999994613 0  1.1 0.199999999999302 0  1.1 0.2499999999991446 0  1.1 0.2999999999990088 0  1.1 0.3499999999988296 0  1.1 0.3999999999986936 0  1.1 0.4499999999985143 0  1.1 0.4999999999984002 0  1.1 0.5499999999985247 0  1.1 0.5999999999986493 0  1.1 0.6499999999987955 0  1.1 0.6999999999989417 0  1.1 0.7499999999990659 0  1.1 0.7999999999992116 0  1.1 0.8499999999993573 0  1.1 0.8999999999994526 0  1.1 0.949999999999584 0  1.1 0.9999999999997226 0  1.1 1.049999999999861 0  1.05000000000004 1.1 0  1.000000000000079 1.1 0  0.9500000000001624 1.1 0  0.9000000000003032 1.1 0  0.850000000000444 1.1 0  0.8000000000005848 1.1 0  0.7500000000007256 1.1 0  0.7000000000008665 1.1 0  0.6500000000010508 1.1 0  0.6000000000012352 1.1 0  0.5500000000014196 1.1 0  0.500000000001539 1.1 0  0.4500000000014195 1.1 0  0.4000000000013 1.1 0  0.3500000000011588 1.1 0  0.3000000000010178 1.1 0  0.2500000000008986 1.1 0  0.2000000000007579 1.1 0  0.1500000000006174 1.1 0  0.1000000000005272 1.1 0  0.05000000000040083 1.1 0  2.671196597248127e-13 1.1 0  -0.0499999999998666 1.1 0  0.2349804267769842 0.6852926050656849 0  0.2334016293993514 0.6586339482879848 0  0.2321687768372291 0.6320280977120016 0  0.2311535575289642 0.6055196902617928 0  0.2303429661683887 0.5790846970907564 0  0.2297409782639062 0.5526996511377674 0  0.2293126340482144 0.52635994746591 0  0.2292406467821341 0.5000235368114685 0  0.2294081753537679 0.4736946268473872 0  0.2297973027693264 0.4473473312509059 0  0.2304123031040372 0.4209748078118483 0  0.2313057500178619 0.3945803166638872 0  0.2324343214744468 0.3681495553566592 0  0.2336736488412893 0.3415612400268857 0  0.2352433472681721 0.3148962028275525 0  0.264014593503858 0.2858068786973866 0  0.2904741854971317 0.2842288783665665 0  0.31689026371307 0.2829432486164641 0  0.3432188389693639 0.2818597598587902 0  0.3694477057456731 0.2809153531608225 0  0.3956229459091908 0.2801483501872011 0  0.4217473381659238 0.2795136190025647 0  0.4478452733375534 0.2789783703419211 0  0.4739398740319217 0.2787055233473018 0  0.500015998262212 0.2786110709122725 0  0.5260948179661652 0.2787013023604036 0  0.5521894634180282 0.2789620920024065 0  0.5783109587527973 0.2793630133096771 0  0.6044540195730095 0.2799891228013133 0  0.6306851436551996 0.2806537384891728 0  0.6569574783911273 0.2815420116096465 0  0.6832888180114489 0.2826312226614369 0  0.7097027557117944 0.2839387690978678 0  0.7361872354571168 0.2855031879617929 0  0.7649965347651417 0.3145224315738492 0  0.7665288030742504 0.3412191930718186 0  0.7677039647777965 0.3678360026679117 0  0.768676653288762 0.3943435868731824 0  0.7694406420681948 0.4207830990758789 0  0.7699689122244548 0.4471738352980861 0  0.7702556827036465 0.4735218335914594 0  0.770282065751936 0.4998453374582008 0  0.7700233316753496 0.5261582051718777 0  0.7696470887647616 0.5524794454245439 0  0.769113188336439 0.5788533178036714 0  0.7683715528364609 0.6052840511767371 0  0.7675080906687325 0.6318309653311313 0  0.7663821548882307 0.6584724987779635 0  0.7648816224179936 0.6851868980179204 0  0.736110917417046 0.7142420134273217 0  0.7096411159970785 0.7158215435771093 0  0.6832527787206372 0.7171587895740935 0  0.6569240176042084 0.7182620947567953 0  0.6306472689496343 0.7191501989443951 0  0.6044051452930677 0.719794563672228 0  0.5782569843797798 0.7203917578359706 0  0.5521398981532925 0.7207723973977754 0  0.5260514639813542 0.7209992245209741 0  0.4999812137564872 0.7210766679563545 0  0.4739069065975166 0.7210121009625163 0  0.447819509947333 0.720737775833578 0  0.4217177988535829 0.7202621205354958 0  0.3955596015930273 0.7197175895748024 0  0.3693443738283154 0.7190246344324359 0  0.3430939075155132 0.7181193483314999 0  0.31675194267823 0.7170701991568647 0  0.2903217902689903 0.7158154098768901 0  0.2638470659941111 0.7142648557403953 0  0.3556603521488444 0.3054339289791124 0  0.2540405454516246 0.4337808759729217 0  0.3555390895324253 0.6945212382674026 0  0.2539694164566809 0.5662937258232505 0  0.7466211003658044 0.5920867741924122 0  0.6180210751432007 0.6965144098732549 0  0.6433327622509282 0.3046995931351151 0  0.7474544402043669 0.4327333716096734 0  0.7468557896974025 0.5123771423684341 0  0.564775205540164 0.3015127529701846 0  0.4355492467832079 0.3036287259425874 0  0.4339761389188803 0.6965974577465974 0  0.53925497231119 0.697500507160102 0  0.2533245814701204 0.4867781987344066 0  0.2537114702579835 0.3805397145845935 0  0.4871206051042331 0.3051483035408806 0  0.259947363974389 0.6175304230737142 0  0.7401832324908162 0.3779947806508031 0  0.4868810163838354 0.6976072031914603 0  0.670974584435855 0.6940953858915939 0  0.3020449522581997 0.3096727026841296 0  0.6984789923022356 0.3108470545671201 0  0.302750688061154 0.6926942294473231 0  0.7424864058117037 0.6477768072759269 0  0.2574664686249961 0.3273576708873432 0  0.2601597113156568 0.6710159326322931 0  0.7239076063344416 0.6917311230799869 0  0.7436453427502724 0.3263138668243574 0  0.32912541599252 0.693648063317855 0  0.3421075393709532 0.6705205677637112 0  0.3682353882281866 0.6709872853748331 0  0.3543498186071493 0.6468021035117384 0  0.3814898299787783 0.6470522953300645 0  0.366593248215221 0.6200519554185976 0  0.3988498644136135 0.6202889512442056 0  0.3808737711227659 0.5879207316708512 0  0.3349049683493939 0.6190820721166201 0  0.4199550164364174 0.5875762604464572 0  0.3975460711237011 0.5504423060270871 0  0.3522156145438276 0.5568202154899684 0  0.3718236198231395 0.5150703339332136 0  0.3294573024418275 0.5175433891518336 0  0.3441337826909034 0.4804718503827979 0  0.3888421507104899 0.4751199040950532 0  0.3645925815443446 0.4402983740072222 0  0.4056148740717994 0.4352916038460324 0  0.3821358314817034 0.4024277750537197 0  0.4200088824282966 0.391110023503602 0  0.3430086489777959 0.4028366913745953 0  0.3919982033227131 0.368495884377238 0  0.4302195911949913 0.6218779551522661 0  0.4599265470076012 0.5952606784946785 0  0.4811007920987873 0.6219465097820106 0  0.5024243271025909 0.5967427199151879 0  0.5227607782421517 0.6221627404279897 0  0.5438958303936244 0.5973977281964966 0  0.5638955845902077 0.6233485858849105 0  0.5847829822913668 0.5989925510277637 0  0.6055434882488963 0.6279848468613991 0  0.6250134333637625 0.5939266140193181 0  0.60624603106559
[...]
<PointData  Scalars="u"> 
<DataArray  type="Float64"  Name="u"  format="ascii">5.7394349497556610e-19  6.2861298321290982e-19  -1.5735705957883716e-19  -1.5738406440992439e-18  5.5317724566252615e-20  -5.8049520209379203e-20  5.8283937987940016e-21  -2.8911268174962408e-20  -9.6959964369966095e-02  -9.6935330033716433e-02  -9.6992058740949877e-02  -9.7145946789389315e-02  1.2789136388736122e-01  1.4656165479036688e-18  2.5920796290608475e-18  -1.6394708679817451e-17  -2.0432813011686869e-18  5.0875094038030965e-18  -2.5582650059084750e-17  -4.1157688835506672e-18  -1.2028364180327903e-17  -1.3752289428994371e-17  -5.1862234340032552e-18  -8.1556588138447042e-18  1.5012294453678219e-17  4.0938180221669208e-18  -5.0926497746558423e-18  4.6576317955471925e-18  -2.0555809381046780e-17  1.2632636297446362e-17  -1.5737348284750689e-18  -5.0009097211184722e-18  4.7653038274617934e-19  1.1859374395574624e-17  1.2251028708925864e-18  -9.7376524219452174e-18  -9.7089317560527297e-18  7.1416642081784409e-18  1.9627095053968863e-18  2.6597559742612059e-17  9.5104438885457654e-18  -5.0107272398516003e-18  4.8679451537013904e-18  -7.6169614910510617e-18  -6.1180070899082043e-18  -1.5224063365515505e-18  -4.0620446199339102e-18  3.3530119780701869e-18  -6.1267031294950867e-18  4.8695190235753140e-18  -1.5247340406423523e-18  0.0000000000000000e+00  -1.1837818391358612e-18  -7.2562939627191704e-18  1.0008876566234630e-17  9.9194855045223967e-19  -1.1838693272655912e-17  6.5451726132562016e-18  2.5264684485068710e-18  -4.5317739986935712e-18  5.4140788668675571e-18  -1.4048502622769187e-17  -1.3577180040630066e-17  -1.8169260313470378e-18  -1.7960913494424168e-18  3.5051531866693218e-18  -1.3652022165099410e-19  -8.8529922533356137e-18  -8.9353345822079852e-18  -3.5238938471582166e-18  1.6433476656458935e-18  -1.6728212219464774e-18  -1.6844146855969839e-18  -6.3292772617371747e-18  -1.8469178297964851e-17  1.9369528264452244e-18  -4.9270083438944337e-18  -4.0501406628342922e-18  -1.5955701252154945e-17  8.9748987159253898e-19  -2.1702539876723937e-19  6.0629028200062963e-18  -7.8266191097212331e-18  -9.6301990865186236e-18  -3.8314578180099630e-18  0.0000000000000000e+00  -1.6664373007850212e-18  -4.0490864467324354e-18  -1.7816084771550234e-18  -4.3540939306571252e-21  8.3937626963165843e-20  2.4130630189763304e-19  4.0748449228545728e-20  -2.0811726150343489e-18  6.6066915483952947e-19  7.7226675630656753e-20  -2.4790652703268580e-18  -1.5332089181099128e-18  -1.4443615069614064e-18  -1.6232808658754816e-18  -7.4290634210932074e-19  -4.7945411154417930e-19  1.4736799349384885e-18  6.9999546456127280e-19  -1.4961894584408624e-19  -5.7063982305176840e-19  -1.4184088189692179e-18  5.6889103885153197e-19  3.6848498917276944e-19  -7.7273469585837895e-19  -2.6990742525959611e-20  8.0517352438912769e-20  4.9779401221707340e-20  -1.0839251146060921e-19  4.0529933596503348e-19  1.3275556991891740e-18  2.9246608248971438e-19  -1.2761883238129372e-18  -9.1416413472692989e-19  -2.1976008648012161e-19  1.2367102496605694e-18  3.0335810394788138e-18  1.5327900565998040e-18  -1.8795102125766734e-19  1.9845007303301531e-19  -2.5619926679715893e-19  -8.3086807758642087e-19  -4.5457109901175864e-19  -2.8155600588487377e-19  1.5734180933854618e-19  5.8742805490949895e-20  7.0373842530170970e-20  2.1134984596684356e-19  -3.4957068492747636e-19  1.6438656000069034e-20  -3.7855208071235230e-20  -1.7520557534506778e-19  3.9252366392678369e-20  -5.2573660366499629e-19  -4.3600234105806878e-19  9.7097622552357620e-19  7.4688857506939711e-20  -1.1542032965191795e-18  3.6641667052406940e-19  3.7623333134760479e-19  -1.1261253314249535e-19  8.5018788343428493e-20  -1.5901188148282961e-18  -1.9692948533345785e-18  -5.6001937896368197e-19  2.9925252658828882e-19  5.0099365194486608e-19  -1.0668842208487726e-19  -1.1957922277856127e-18  -1.2953036704292803e-18  -5.2629906002983058e-19  -3.3555776686565794e-20  2.6792308577085122e-20  -4.0341551266513748e-20  4.6946711922910270e-20  1.4801972555608845e-19  -2.8171603721268800e-19  -3.5062633172143293e-20  -2.2699537317401223e-18  -2.0941891122670374e-18  -4.0094503430365070e-19  -5.5176021971968552e-20  -1.4886138392182272e-18  -1.7047218062723175e-18  -4.4098239791553034e-19  4.5900195687035775e-19  4.7018699647142941e-19  -8.1575290719018291e-19  -1.3842042932472102e-18  -5.0582143518849548e-19  -2.3411084113129218e-19  -4.3890105622516539e-19  -4.6408806751321900e-19  -2.9447002978041631e-19  8.0207330226748582e-20  3.2461739482626477e-20  -8.6217715208265211e-02  -7.4965989880671519e-02  -6.4745085435261765e-02  -5.6251580833819891e-02  -4.9780992777924776e-02  -4.5049729242921215e-02  -4.2295510526236604e-02  -4.1276238803884813e-02  -4.2276447042939057e-02  -4.5123728932265517e-02  -4.9738382158415084e-02  -5.6152795863122704e-02  -6.4570704470278836e-02  -7.4863388646076195e-02  -8.6095145865633049e-02  -9.0905350213572766e-02  -8.2530956878244799e-02  -7.3934897089362864e-02  -6.6293234951246588e-02  -5.9844473907817726e-02  -5.4594787519487833e-02  -5.0432279438086397e-02  -4.7434781520265104e-02  -4.5720540651313993e-02  -4.5094695277711191e-02  -4.5648657184929546e-02  -4.7473741642998911e-02  -5.0252558620249785e-02  -5.4691980487070649e-02  -5.9996686688150155e-02  -6.6366295553247981e-02  -7.3955520757789897e-02  -8.2588020490975869e-02  -9.0937384576234237e-02  -8.6178983233006795e-02  -7.4978714687106790e-02  -6.4752062988905790e-02  -5.6265977545893409e-02  -4.9827366483445448e-02  -4.5083440583633283e-02  -4.2248067781668369e-02  -4.1328051991250288e-02  -4.2247755223097240e-02  -4.5005869085086414e-02  -4.9775201779453319e-02  -5.6252564349268619e-02  -6.4787826124817788e-02  -7.5071063452559594e-02  -8.6300965599660412e-02  -9.1135714019249511e-02  -8.2744795723027398e-02  -7.4161173822006321e-02  -6.6506309105775582e-02  -6.0141750462455915e-02  -5.4785418620320894e-02  -5.0318214489632924e-02  -4.7511486963621341e-02  -4.5663873051178847e-02  -4.5028477693874948e-02  -4.5666360252315429e-02  -4.7432628261118687e-02  -5.0502289596131553e-02  -5.4650165624266805e-02  -5.9893634120011467e-02  -6.6360146845730994e-02  -7.4008233396961859e-02  -8.2569183550663658e-02  -9.0929750498887602e-02  -1.8557448376245379e-02  -5.7224902817862300e-03  -1.8598215583527596e-02  -5.8524262643107382e-03  -1.4056203664253152e-02  -1.2242396004876250e-02  -1.8708421007625278e-02  -7.4032921364280456e-03  8.8802558189863743e-04  -2.1728437524968654e-03  1.3071027314983972e-05  -6.7152825520953830e-04  1.7249986427316519e-03  1.3364917472864909e-03  -2.3815771662776236e-02  6.5447214205116393e-03  -1.8127794922682235e-02  -2.0302517121459238e-02  3.2698321152628660e-03  -2.8367077120406627e-02  -3.8192896597736038e-02  -3.7346961049602126e-02  -3.9697136540473084e-02  -3.6128703205130369e-02  -5.0502330010126557e-02  -4.7934877318507506e-02  -5.2742478645417715e-02  -5.1543162251464297e-02  -2.7695138121818515e-02  -1.5318958392436315e-03  8.2001122701301481e-03  2.4861701810400014e-02  3.5768523559331453e-02  5.2173058693517509e-02  6.4945078515992030e-02  7.7506454543559034e-02  3.7217068073140472e-02  9.1824700668331580e-02  9.9947549692466789e-02  7.6047536280151914e-02  9.4817768310645492e-02  6.9086016097027275e-02  7.8640613480397900e-02  1.0192057132146944e-01  8.1764821717695835e-02  9.8082311414441209e-02  7.3032592984109385e-02  7.9642336851812767e-02  5.4084630799602032e-02  5.3796077230208419e-02  7.2568050785097149e-02  9.6167674892089688e-02  7.9591031326496933e-02  9.8118981372876335e-02  7.9004219542832793e-02  9.4283486793792975e-02  7.2361224986256384e-02  8.4150914578083477e-02  5.7470858629609843e-02  7.1709784205119767e-02  9.5971872189291096e-02  7.5801898370951318e-02  9.5493910280712024e-02  5.1554044243785783e-02  4.9759456748373496e-02  3.8082925927044327e-02  4.3561614905497287e-02  5.0182222741494781e-02  3.8062432651569132e-02  5.7419824021917448e-02  8.2228994373139491e-02  1.6425825052593494e-02  3.1441296682044304e-02  4.7539596436730933e-02  4.1413945361897436e-02  5.4172037214863467e-02  8.5136320913674804e-02  5.1017131346426867e-02  7.8241465236638955e-02  1.0479273497925451e-01  9.0024250720517660e-02  6.6484327802004278e-02  7.1369095681519806e-02  1.0033231621939409e-01  7.5041942870366460e-02  5.1241123797116921e-02  5.0931211976226395e-02  6.6895572323580191e-02  2.9646926658604966e-02  2.4109231349097586e-02  4.3506431477532033e-03  3.8702252804991189e-03  1.1229836452880931e-01  2.4052156632805077e-02  2.5554601473710619e-02  2.0591093222425885e-02  3.7592719844909930e-02  2.9198858942616627e-03  -3.0258079495289998e-03  1.2998291778991339e-02  4.7631459245100906e-02  2.4960965773824697e-02  1.3927289788943677e-02  3.1498712566022949e-02  5.5943554019415996e-02  3.2712872347362851e-02  2.6647042631727912e-02  5.1964809765757750e-02  3.0423371923323426e-02  9.0630324123990979e-03  4.0167372014205267e-04  1.3211295501256232e-02  1.8805222429175331e-02  2.7430589622090377e-02  9.8471982396256073e-03  4.8507392074956093e-02  1.1602933654198591e-01  8.0010706831142395e-03  1.1605728959943692e-01  7.0660072419406694e-02  4.2380594676584768e-02  6.5975247496309883e-02  4.0027705326862284e-02  2.0802113823716183e-02  1.6258141058344812e-02  2.9765042699209619e-02  4.6459425841790122e-02  2.8164389498371054e-02  2.5961317405517971e-02  1.0415645457893587e-01  -1.6145217884925515e-02  -1.8590577785339832e-02  4.2679922567063419e-02  1.7882835742927945e-02  2.3157898437778178e-02  3.8474719093140819e-02  2.8664456366450885e-02  7.2644019407366494e-03  2.5116312389306290e-02  7.4171790285833894e-03  5.2805226430333941e-03  -1.2552337531719178e-02  -2.8399565763630355e-02  -2.6780186194634365e-02  2.0982278197608503e-02  3.6292148790021098e-03  1.4723091497776226e-03  -1.2109064991541081e-02  -3.1841638996929725e-02  -3.5842519117348808e-02  -4.8386704466649331e-03  2.1486493991822130e-02  4.3468130929778456e-02  -1.9372914951131047e-02  -1.0876604711691405e-02  -1.6301956014344540e-03  -2.7947723851532737e-02  -1.4986847618879976e-04  3.1189806661681653e-03  -1.1662958525552490e-02  -3.5404057826244846e-02  -1.2197093600817206e-02  2.3072424650866855e-03  -1.2748919955259926e-02  9.1415175193126988e-03  -6.1073485939074617e-03  1.2536132838871426e-02  -1.9604428800203653e-03  -2.0465586392013319e-02  -3.9920093501131550e-02  -3.0181575091259252e-02  4.1100762432381447e-03  3.2896757260682280e-02  -1.4499315865756415e-02  -1.1472729031954260e-02  -6.6902797359154299e-04  -5.2396437965679797e-02  -5.2782693240859796e-02  -5.1211513063458371e-02  -5.2898989987005991e-02  -4.5728123308293647e-03  1.0563287436532283e-01  1.1946810731530125e-01  2.2000999018060744e-02  -1.2077160178528484e-02  -1.4563499262620088e-02  -1.3029961859447017e-02  -3.7203937824945257e-02  3.7728454544302362e-04  -4.1361774482710683e-03  2.7605146273292445e-02  4.1391410325397157e-02  2.4323511026600759e-03  4.4115599664020642e-02  1.1372174196609522e-01  1.1261681999408037e-01  8.7482423604655371e-02  1.2393984793739828e-02  -3.3900831163460533e-03  2.4758003224930152e-02  1.4051922246260479e-02  2.4150134135334535e-02  -1.5282092508356786e-03  -9.2868181156279060e-04  1.0988620407334412e-01  -1.7216724706447462e-02  2.1363665815224486e-02  1.2827712652020524e-02  5.0480456637711994e-02  -2.0794057519274729e-07  4.6733380700334705e-02  8.7537777595272051e-02  -4.6202218745156629e-03  1.2226256231603508e-01  5.9169497020216621e-02  -3.5014071374185780e-02  4.3642732663685450e-02  2.2861323506581772e-02  1.7822506670546006e-02  1.0667916780872894e-01  -4.1011031355463849e-03  5.1611180172504061e-03  2.3783454727341859e-02  1.2448032387938308e-01  1.3803184714221315e-02  2.1727629698185227e-02  1.1961962538554194e-01  5.5732792391202442e-02  2.5657900575370578e-02  1.2404148169646631e-01  4.7928011002980775e-02  8.3453237853514540e-03  1.4839657988430608e-03  3.0674342274885438e-02  5.6404660623601083e-02  2.1587843898190726e-02  -5.8115582947942963e-03  4.4472581966534225e-02  -6.3849298312673997e-02  -6.3970728559880827e-02  -6.3953621797381469e-02  -6.4103234650349131e-02  4.9849218061224282e-03  -1.7281112577524696e-02  1.0086438845468101e-02  -5.6879904569723276e-03  1.8650918029048686e-02  5.9782981615986622e-02  -1.4370464241059370e-02  -7.2056362735403831e-04  3.3268653313532216e-02  6.7194451061948865e-02  5.5225669901845409e-02  7.0183724872673700e-02  4.7625877283899798e-03  6.7368918936572181e-02  2.2268711796129544e-02  7.4252785746601838e-02  1.2270868643469701e-01  2.8604593608674247e-02  5.2025411298527946e-02  3.5286562885214395e-02  2.3382103775585562e-02  6.2315386887636562e-02  6.6644769495407943e-02  1.1494175959680029e-01  -2.7650078264421681e-02  -7.4095738093377217e-02  -7.4521456763271460e-02  -8.4380218357738984e-02  -1.0183732595118097e-01  -8.4828420644972952e-02  -1.0264703980163412e-01  -7.4391639997505324e-02  -8.3954749523081448e-02  -7.4364448827046237e-02  -8.4347128621499859e-02  -1.0179195656424242e-01  -1.0187963735575689e-01  -4.7641794470365519e-02  -4.1617928720987414e-02  -5.2020965162252970e-02  -4.3941603114795787e-02  -6.8373944188749688e-02  -9.0920454357105579e-02  -9.0921894714745224e-02  -6.8023744475690498e-02  -1.0934899902159843e-01  -1.1770158464456523e-01  -7.1517132954239976e-02  -7.1292775828936200e-02  -9.9671675396320464e-02  -1.1624720199762641e-01  -1.2359467068270021e-01  -1.2505205720967733e-01  -1.2973226697571741e-01  -1.3121929723100453e-01  -4.7544584832093971e-02  -4.5615221944605211e-02  -4.7160385471904501e-02  -4.5860360373291498e-02  -4.4900529527314832e-02  -4.3102262353697143e-02  -4.6488192546511244e-02  -1.3386692502170047e-01  -1.3525887631461250e-01  -1.2147414902715710e-01  -1.1438450318474776e-01  -4.1490485580117455e-02  -4.2584239887582934e-02  -4.0749100302731739e-02  -3.7212174855581343e-02  -4.0327019593125180e-02  -3.7497714909440823e-02  -4.6549710678264383e-02  -4.1477279219140600e-02  -1.1761195513612678e-01  -1.1145019934592706e-01  -4.8203620530234546e-02  -4.1912564501342710e-02  -4.8293424440204735e-02  -1.1468541808310119e-01  -1.1894584292306278e-01  -1.2321443518391302e-01  -1.2679860082601346e-01  -1.3085149718901887e-01  -1.3245637601217419e-01  -1.2754116823446562e-01  -1.3521372702157955e-01  -1.3407957223011754e-01  -1.3332571890450842e-01  -1.1471880183785027e-01  -1.1924761682653463e-01  -1.2328909114396985e-01  -1.2681349099015127e-01  -1.2215933217546832e-01  -1.3086042505405818e-01  -1.3231868870483837e-01  -1.3515481662713499e-01  -1.3406646733059782e-01  -1.3337571429174017e-01  -8.2613670827345526e-02  -1.0911626561819814e-01  -1.1753818732683130e-01  -1.1607849556926211e-01  -1.2346578699085270e-01  -1.2488225232446247e-01  -1.2954251644878195e-01  -1.3107474673717992e-01  -1.3368765807915770e-01  -1.3519348226527089e-01  -6.6031314837471669e-02  -6.6513391830281779e-02  -7.6549877078396347e-02  -7.6718456704681373e-02  -1.2676597983139334e-01  -1.3479198656313066e-01  -1.3409627184254466e-01  -1.3368037576460409e-01  -1.3494776219048313e-01  -1.3428602003436574e-01  -4.7515112698598379e-02  -1.3374499644520924e-01  -1.3471414262971607e-01  -1.3371592396761683e-01  -1.3388647034354464e-01  -1.3465439406728885e-01  -1.3038160071314414e-01  -8.1911127431018110e-02  -1.2828665276467519e-01  -1.2869666430144852e-01  -4.1717660611427475e-02  -3.8191379524975456e-02  -4.1482867863757635e-02  -1.2756985041084531e-01  -1.2828773987418374e-01  -1.0830669283725101e-01  -1.0315152959277005e-01  -1.3062467830274355e-01  -1.3225466972866950e-01  -1.3047970352777566e-01  -1.3219651056347820e-01  -1.2752748884392812e-01  -1.3134202603521891e-01  -1.2523073122432110e-01  -1.2785837007565631e-01  -1.2250638494513465e-01  -1.2378743851768478e-01  -1.2784127342695986e-01  -1.3099375698714694e-01  -1.2506002514601897e-01  -1.2718081611415905e-01  -1.2200502247063896e-01  -1.2358131539563051e-01  -1.1925066004480248e-01  -1.2060256202865785e-01  -1.1677865912917042e-01  -1.1858086152657864e-01  -1.1533368120230969e-01  -1.1782520835020617e-01  -1.1480986543431904e-01  -1.1827377413624462e-01  -1.1948345555572315e-01  -1.2078748363699904e-01  -1.1690554203762077e-01  -1.1878235792182013e-01  -1.1543214096108269e-01  -1.1807867092871738e-01  -1.1483149155572778e-01  -1.1851184171916652e-01  -1.2650378804156129e-01  -1.2514156711002339e-01  -1.2433061825535169e-01  -1.2444890306864716e-01  -1.2638830778467081e-01  -1.2458184044167722e-01  -1.1537178672760036e-01  -1.1987722220425863e-01  -1.1640659512162238e-01  -1.2218414149136329e-01  -1.1794889683557787e-01  -1.1533680827394784e-01  -1.2001375508141862e-01  -1.1624637379164968e-01  -1.2232756220270846e-01  -1.1791806054365432e-01  -1.2986278729435174e-01  -1.2639566323506859e-01  -1.2074483939832684e-01  -1.1657692611942443e-01  -1.2036418209874113e-01  -1.1619748306300336e-01  -1.1986970488223596e-01  -1.1126857291855780e-01  -1.1267786746690155e-01  -1.1163703087728405e-01  -1.1334463576853487e-01  -1.1314817844515056e-01  -1.0313499805211335e-01  -1.1271904285938712e-01  -1.2311852441405080e-01  -1.1465048287416571e-01  -1.1295129193151562e-01  -1.0313328836538120e-01  -1.2377793135331178e-01  -1.1282709273164981e-01  -1.1900630685890598e-01  -1.1193678312333306e-01  -1.1902470728251209e-01  -9.1747702794682265e-02  -9.5121028347084483e-02  -8.7355759080147269e-02  -9.8970675815517981e-02  -1.0833741305875150e-01  -1.1691030768293427e-01  -8.9247965573395593e-02  -1.2878519218811782e-01  -3.3496419770815654e-02  -1.0603119224897448e-01  -1.3018874819117124e-01  -1.0745313353827654e-01  -8.4737176555133020e-02  -9.3088210124111073e-02  -1.0723814744434476e-01  -1.1817296441962974e-01  -1.1824746566628068e-01  -1.0792920662043910e-01  -1.1448550472349635e-01  -1.0756510472504228e-01  -1.1209704405986813e-01  -1.0567895882432668e-01  -1.0494817828514852e-01  -9.9314085700494048e-02  -1.1260322610982496e-01  -9.8514132106126862e-02  -9.4760533351481338e-02  -9.2408264077493293e-02  -9.1199898196774903e-02  -8.8697521561551737e-02  -8.9207918434433084e-02  -8.6525541345918389e-02  -1.1119956701618930e-01  -1.1562014331110466e-01  -1.0772478650983822e-01  -1.1676860289318143e-01  -9.5095172789739502e-02  -9.0488044399743436e-02  -9.1109984989010531e-02  -8.9311440708592482e-02  -1.0760656839235194e-01  -1.0968021507588399e-01  -8.3022467524659818e-02  -3.0545449818769447e-02  -3.6617632086134888e-02  -3.3684536550103041e-02  -1.1455417261029630e-01  -1.0828749072886305e-01  -1.2290921970281549e-01  -1.1161318373662764e-01  -1.1444749043210468e-01  -9.3060643799074971e-02  -9.6964693203834149e-02  -9.5013667889214157e-02  -9.9239021392848556e-02  -1.0447776056899344e-01  -1.0914756317713016e-01  -1.0260378481967465e-01  -9.4107989057519451e-02  -9.5793372196254667e-02  -9.4225908447311407e-02  -9.0847056177620913e-02  -9.0487030754078560e-02  -8.9791906545114056e-02  -8.4955329192668863e-02  -8.8642379573814475e-02  -8.5422726214656602e-02  -8.7863716886791496e-02  -8.7890335436188211e-02  -9.1326244772240828e-02  -8.7275993839241992e-02  -9.5055895889150019e-02  -9.2270850048967956e-02  -9.8916197084892757e-02  -9.8216411207029911e-02  -1.0597423119268015e-01  -1.0015309367055947e-01  -1.1368144770521607e-01  -9.9908404066422152e-02  -1.1521902581301198e-01  -1.0539945518604481e-01  -1.1198314264274929e-01  -1.0292450566854866e-01  -1.2815565386523167e-01  -1.1993216243422573e-01  -8.6205991567895476e-02  -8.9279110554343927e-02  -1.0488217164229151e-01  -1.0243638682011322e-01  -1.2019134731852608e-01  -8.3447434810845433e-02  -1.2508624409276944e-01  -8.2245637036674868e-02  -9.2856442553138921e-02  -8.9048701684313017e-02  -1.1074788560657656e-01  -9.2476157254184135e-02  -1.1223918624309258e-01  -8.0561359511454753e-02  -1.0213842454940068e-01  -1.0271043415229898e-01  -9.2456909232212114e-02  -9.3255227002963847e-02  -1.0116639108149984e-01  -8.6268115442813056e-02  -8.2149503346940725e-02  -9.1971378769613435e-02  -9.9029462678205962e-02  -1.0168012172339444e-01  -1.046