<?xml version="1.0"?>
<VTKFile type="UnstructuredGrid"  version="0.1"  >
<UnstructuredGrid>
<Piece  NumberOfPoints="1297" NumberOfCells="2496">
<Points>
<DataArray  type="Float64"  NumberOfComponents="3"  format="ascii">0 0 0  0 1 0  1 1 0  1 0 0  1.1 -0.1 0  -0.1 -0.1 0  1.1 1.1 0  -0.1 1.1 0  0.2391816743061111 0.6946017393658453 0  0.2373436524550444 0.3001523620003958 0  0.761790918070009 0.2996298365219826 0  0.7617283458431989 0.6937576697321275 0  0.4998783823668829 0.4964791743190961 0  0 0.9499999999997918 0  0 0.8999999999995836 0  0 0.8499999999996529 0  0 0.7999999999999998 0  0 0.7500000000003466 0  0 0.7000000000006934 0  0 0.6500000000010401 0  0 0.6000000000013869 0  0 0.5500000000017335 0  0 0.5000000000020587 0  0 0.4500000000018723 0  0 0.4000000000016644 0  0 0.3500000000014564 0  0 0.3000000000012483 0  0 0.2500000000010403 0  0 0.2000000000008322 0  0 0.1500000000006241 0  0 0.100000000000416 0  0 0.05000000000020799 0  0.04999999999989965 0 0  0.09999999999981467 0 0  0.1499999999997036 0 0  0.1999999999995579 0 0  0.2499999999994121 0 0  0.2999999999992664 0 0  0.3499999999991206 0 0  0.3999999999989749 0 0  0.4499999999988292 0 0  0.4999999999986943 0 0  0.5499999999988151 0 0  0.5999999999989468 0 0  0.6499999999990784 0 0  0.69999999999921 0 0  0.7499999999993417 0 0  0.7999999999994734 0 0  0.8499999999996051 0 0  0.8999999999997368 0 0  0.9499999999998684 0 0  1 0.04999999999989965 0  1 0.09999999999981467 0  1 0.1499999999997036 0  1 0.1999999999995579 0  1 0.2499999999994121 0  1 0.2999999999992664 0  1 0.3499999999991206 0  1 0.3999999999989749 0  1 0.4499999999988292 0  1 0.4999999999986943 0  1 0.5499999999988151 0  1 0.5999999999989468 0  1 0.6499999999990784 0  1 0.69999999999921 0  1 0.7499999999993417 0  1 0.7999999999994734 0  1 0.8499999999996051 0  1 0.8999999999997368 0  1 0.9499999999998684 0  0.9499999999997918 1 0  0.8999999999995836 1 0  0.8499999999996529 1 0  0.7999999999999998 1 0  0.7500000000003466 1 0  0.7000000000006934 1 0  0.6500000000010401 1 0  0.6000000000013869 1 0  0.5500000000017335 1 0  0.5000000000020587 1 0  0.4500000000018723 1 0  0.4000000000016644 1 0  0.3500000000014564 1 0  0.3000000000012483 1 0  0.2500000000010403 1 0  0.2000000000008322 1 0  0.1500000000006241 1 0  0.100000000000416 1 0  0.05000000000020799 1 0  -0.1 1.05000000000004 0  -0.1 1.000000000000079 0  -0.1 0.9500000000001624 0  -0.1 0.9000000000003032 0  -0.1 0.850000000000444 0  -0.1 0.8000000000005848 0  -0.1 0.7500000000007256 0  -0.1 0.7000000000008665 0  -0.1 0.6500000000010508 0  -0.1 0.6000000000012352 0  -0.1 0.5500000000014196 0  -0.1 0.500000000001539 0  -0.1 0.4500000000014195 0  -0.1 0.4000000000013 0  -0.1 0.3500000000011588 0  -0.1 0.3000000000010178 0  -0.1 0.2500000000008986 0  -0.1 0.2000000000007579 0  -0.1 0.1500000000006174 0  -0.1 0.1000000000005272 0  -0.1 0.05000000000040083 0  -0.1 2.671196597248127e-13 0  -0.1 -0.0499999999998666 0  -0.0500000000000906 -0.1 0  -1.730560139634463e-13 -0.1 0  0.04999999999975802 -0.1 0  0.09999999999961506 -0.1 0  0.1499999999994613 -0.1 0  0.199999999999302 -0.1 0  0.2499999999991446 -0.1 0  0.2999999999990088 -0.1 0  0.3499999999988296 -0.1 0  0.3999999999986936 -0.1 0  0.4499999999985143 -0.1 0  0.4999999999984002 -0.1 0  0.5499999999985247 -0.1 0  0.5999999999986493 -0.1 0  0.6499999999987955 -0.1 0  0.6999999999989417 -0.1 0  0.7499999999990659 -0.1 0  0.7999999999992116 -0.1 0  0.8499999999993573 -0.1 0  0.8999999999994526 -0.1 0  0.949999999999584 -0.1 0  0.9999999999997226 -0.1 0  1.049999999999861 -0.1 0  1.1 -0.0500000000000906 0  1.1 -1.730560139634463e-13 0  1.1 0.04999999999975802 0  1.1 0.09999999999961506 0  1.1 0.1499999999994613 0  1.1 0.199999999999302 0  1.1 0.2499999999991446 0  1.1 0.2999999999990088 0  1.1 0.3499999999988296 0  1.1 0.3999999999986936 0  1.1 0.4499999999985143 0  1.1 0.4999999999984002 0  1.1 0.5499999999985247 0  1.1 0.5999999999986493 0  1.1 0.6499999999987955 0  1.1 0.6999999999989417 0  1.1 0.7499999999990659 0  1.1 0.7999999999992116 0  1.1 0.8499999999993573 0  1.1 0.8999999999994526 0  1.1 0.949999999999584 0  1.1 0.9999999999997226 0  1.1 1.049999999999861 0  1.05000000000004 1.1 0  1.000000000000079 1.1 0  0.9500000000001624 1.1 0  0.9000000000003032 1.1 0  0.850000000000444 1.1 0  0.8000000000005848 1.1 0  0.7500000000007256 1.1 0  0.7000000000008665 1.1 0  0.6500000000010508 1.1 0  0.6000000000012352 1.1 0  0.5500000000014196 1.1 0  0.500000000001539 1.1 0  0.4500000000014195 1.1 0  0.4000000000013 1.1 0  0.3500000000011588 1.1 0  0.3000000000010178 1.1 0  0.2500000000008986 1.1 0  0.2000000000007579 1.1 0  0.1500000000006174 1.1 0  0.1000000000005272 1.1 0  0.05000000000040083 1.1 0  2.671196597248127e-13 1.1 0  -0.0499999999998666 1.1 0  0.231294276749341 0.6711766829371039 0  0.2258761472709022 0.6459977740348419 0  0.2210761930226303 0.6205505529105528 0  0.2170573908160018 0.5953457544907356 0  0.2137327217491823 0.5705370122599013 0  0.2110166177632206 0.5460663367533074 0  0.2090890941261782 0.5217675422590857 0  0.2085897655592064 0.4974775992318597 0  0.2089838610396047 0.4732099553689827 0  0.2104756133374294 0.4488085641027246 0  0.2128641673896789 0.4243007474781978 0  0.2160302681245415 0.3996156245221115 0  0.2197637479783788 0.374568485799518 0  0.2243133159578701 0.3491024075438059 0  0.2294286185795496 0.3237857227451585 0  0.2618119017850554 0.2951477706243467 0  0.2880478056114451 0.2922260989281172 0  0.314746972385552 0.2897331332756289 0  0.3414773794691149 0.2873804867692731 0  0.3681476188251803 0.2853765625855198 0  0.3946515902207055 0.2836278956030617 0  0.4209906701014829 0.282136676564461 0  0.447236526004184 0.2808893785356192 0  0.4734590256238216 0.280233273131032 0  0.4996165277535075 0.2800038025819824 0  0.5257700658837249 0.2802774244413224 0  0.5519642799602938 0.2809886887534137 0  0.5782539885361737 0.2820308958635451 0  0.6046271295841086 0.2835457320364561 0  0.6312062144788083 0.2852067763453 0  0.6579079538235455 0.2871309630084137 0  0.6845982860295791 0.2894023908818223 0  0.711223834429676 0.291859455658304 0  0.7373596812031169 0.2946727748211697 0  0.7694388893600945 0.3231496603482092 0  0.7749288008719322 0.3482806788527326 0  0.7795728428097235 0.3737521989718264 0  0.7834013164811635 0.3989190862931113 0  0.7865554376766605 0.4236888516504905 0  0.7889876646226511 0.4481801904779939 0  0.7903849381161152 0.472471447664712 0  0.7906802356316983 0.4965822978752835 0  0.789873540495647 0.5206534521643942 0  0.7882668517901421 0.5447913218579261 0  0.7860035066096797 0.5692533777762459 0  0.7828361414636057 0.5939524372852171 0  0.7793708977063136 0.6193102462547598 0  0.7748278844820301 0.644887075927897 0  0.7694721112302111 0.6701706403490213 0  0.7373384946181937 0.6985491475009639 0  0.7112401403712456 0.7011212409481457 0  0.6847684502591393 0.7035526146388107 0  0.6581392217123356 0.7058024008645039 0  0.6315257808787466 0.7077962298931041 0  0.6049771023995995 0.7094729057815402 0  0.5786727024347342 0.7109478556996931 0  0.5524910900385506 0.7119609993712834 0  0.526417483080565 0.7126024813847731 0  0.5004075409050497 0.7128141462821947 0  0.4743838425442325 0.7126463680044107 0  0.4483075210476291 0.7119700273611461 0  0.4221870785848092 0.710856574533958 0  0.3958802750764996 0.7095513030307423 0  0.3693919701936492 0.7079680068997931 0  0.3428291773820561 0.706103008709596 0  0.3161933210632151 0.7040394027623657 0  0.2896129808457006 0.7017978797948726 0  0.2635201879785352 0.6992260483302323 0  0.3531342159489173 0.3100693949419634 0  0.2381725288220744 0.4358395939667027 0  0.3543342878532626 0.6834023037207365 0  0.238818836972026 0.5588079731179366 0  0.7602982376382325 0.5820273003021588 0  0.6195428328399497 0.6859575937671204 0  0.6450429908611305 0.3093291528703438 0  0.7630555404264018 0.4344288425601124 0  0.7641760779666202 0.5080444447964945 0  0.5651036688982396 0.3037462757980069 0  0.4344066588031475 0.3058005263021314 0  0.4338816195801647 0.6876034982280471 0  0.5398895004778914 0.6889033911505195 0  0.2356998435457003 0.4850558808565931 0  0.2415450840304178 0.3858747323071988 0  0.486587528193609 0.3066402475779659 0  0.2493304841472495 0.6069489861809835 0  0.7509941743207521 0.3829989466189994 0  0.4871851436213323 0.6892682286949755 0  0.6734369981574542 0.6815622551037319 0  0.2982931326827603 0.3165523223846205 0  0.7014441068096046 0.3176112099220475 0  0.3007004187959443 0.6797477191923796 0  0.7509130694327688 0.6346755106318341 0  0.2510277427517611 0.3354940221649155 0  0.2554000766893249 0.657472068600791 0  0.727015229071943 0.67705523026869 0  0.7489759530720074 0.3342793534116443 0  0.3274776126286413 0.6816324084112108 0  0.3393795306270853 0.6595477287909862 0  0.3661699969834925 0.6607679845110158 0  0.3507292190166525 0.6368780377202897 0  0.3787589933165358 0.6377735804790422 0  0.3621855946960429 0.6113340047864954 0  0.3957557383358426 0.6121336265622694 0  0.3759824171181281 0.5806579550912881 0  0.3290049136421986 0.6097493230764955 0  0.4168856231389084 0.5807767107149802 0  0.3926693349526373 0.544918461921827 0  0.3447390625604326 0.55068385035356 0  0.3648777589770227 0.5111088567783648 0  0.3194664007090302 0.5134700614157834 0  0.3351245201204531 0.4784382613902625 0  0.3829031796342831 0.4730307276563126 0  0.3575284036281324 0.4400971656178666 0  0.400997925686501 0.4347630736219135 0  0.3769414580430412 0.403539686475996 0  0.4167587387925583 0.3919400868965865 0  0.3356700120334133 0.4047969129927589 0  0.3881644435373614 0.3705320516409451 0  0.4282820033980695 0.614123383567817 0  0.4585866246643756 0.5885037507520712 0  0.4807540098935975 0.6145532579969092 0  0.5026603930971294 0.590032174615414 0  0.523651672870568 0.6147179808434726 0  0.5456623340691058 0.5904914314186995 0  0.5660578227852753 0.6154981484895421 0  0.5881420879693571 0.591598026172 0  0.609007287430644 0.6192973043355806 0  0.6303211283778406 0.5860756864656481 0  0.611314058389013 0.5517
[...]
<PointData  Scalars="u"> 
<DataArray  type="Float64"  Name="u"  format="ascii">-1.3965870663652289e-18  -7.7699966387447239e-19  -1.4001294590914779e-18  -3.2577673888494432e-18  1.4092734455589472e-19  3.9331611003265457e-20  3.3773507706213508e-20  3.1345975299853577e-20  -9.0364005643248257e-02  -8.7184386601969546e-02  -8.7480883371280974e-02  -9.0571624207855139e-02  1.2846248775972960e-01  3.1315797924281375e-18  2.3090341045961812e-18  -1.7628483159344013e-17  -2.0181566960127195e-17  -3.4954815409364893e-18  -3.2244137437077818e-17  -4.3722352530077235e-19  -1.2814209055782724e-17  -6.2475453260986258e-18  -2.4673818414963004e-17  -2.4467194896539927e-17  2.5192761458922478e-17  -7.6749202536619615e-19  -1.0378546109547749e-17  4.7727407835134003e-18  -2.3462033960648218e-17  1.7083547197614717e-17  -4.8984096500605032e-19  -5.1755871955965182e-18  2.5590895982294081e-18  1.0612651089866714e-17  -2.7325717083990969e-18  -1.0437844762116992e-17  -2.0387502048327298e-17  7.1165559614965738e-18  -6.0256272675513623e-18  3.0504207495342222e-18  -2.8486405976885477e-18  -5.3091856468945576e-18  4.7560685148838852e-18  -2.7384437753466354e-18  -7.9173796149631548e-18  -6.0081504663611056e-18  -9.3384283900081675e-18  -2.3285669580383880e-17  -4.5034206251855784e-18  1.1678012266346139e-17  9.3643488864999497e-18  -7.9488519040640812e-18  -1.6504324980728400e-17  -1.8236252200795377e-17  6.7122522972093762e-18  -5.9686081930212957e-18  -9.2619272281649613e-18  5.2535557688163671e-18  -3.0694215607967900e-17  -7.2393492310695206e-18  -4.2408300049918993e-18  -1.3451288037915468e-17  -1.1714776981494034e-17  -9.6617457086189122e-19  -1.1681601784464787e-17  -2.0086419119942708e-18  -6.1127764783953665e-18  -1.2422040786337420e-17  -1.9426732199408224e-17  -7.2610311653771149e-18  -1.5935782980457284e-18  2.2066818458372508e-18  1.9994618221763410e-19  -7.4406156052475922e-18  -6.9871937262722221e-19  -7.7385792685589230e-18  -5.8602017208110288e-18  -1.9049010600037833e-17  -3.1970699318196748e-17  -2.1355684129680773e-17  -1.6144448160797826e-17  3.8603165092602053e-18  -8.8044957049022578e-18  -1.4306047799923608e-17  -2.0155985122455362e-18  -1.0840876084261433e-17  2.6889543269326033e-18  -6.8835433156690270e-18  -4.9973148765170903e-18  -8.3018375103193020e-20  1.6185475013332183e-20  3.5776170715141301e-19  -7.2667919184024924e-19  -2.8858883781366272e-18  -1.6768241920234132e-18  -1.6028173555683794e-18  -3.0060291896810921e-18  -1.5238225284876652e-18  -7.2460834613158735e-19  -1.3486166547653080e-18  -2.8102550198521947e-18  -2.8154300548168412e-18  2.2230614498312988e-18  5.9522978480830606e-19  -1.2610739721144412e-18  -1.0826886145387526e-18  -1.3470199382277625e-18  9.9795366226342866e-19  6.6193914010015424e-19  -8.8576846690654288e-19  -2.3725006620645983e-19  3.5189703123549928e-20  -2.7588701922344227e-20  -2.8025460728645315e-19  5.5460353237950974e-19  1.1331674979390899e-18  2.2019724173262560e-20  -2.0951730478943035e-18  -2.0700788333581644e-18  -7.6469857578166616e-19  -1.3460273732741498e-19  3.1352049975948403e-20  -4.3901546163068493e-19  -2.4015963827368602e-19  5.8504732892522235e-19  2.2413783348978694e-19  -9.4669666666984383e-19  -8.7916286932527181e-19  -1.6911187269753202e-18  -2.9137073592533374e-18  -8.9858956068546216e-19  1.8700334149225815e-18  1.4808532307093164e-18  -3.3580595779449634e-19  -1.5413215358496363e-19  1.6797540246717193e-20  -4.2987008590580750e-19  -1.1257639231876092e-18  -2.8519507132228891e-18  -2.0348441176378735e-18  2.7039910030004261e-19  -7.1254524780253090e-19  -5.6641458069922701e-19  -3.8942170010837948e-19  -2.6231371853794735e-18  -2.0158537115557105e-18  -4.2937924118964600e-19  -1.8979086593397684e-18  -1.5143013864984730e-18  -6.6962556271816571e-19  -9.7783490279800271e-19  -7.1065366108225457e-19  -6.4975911892046974e-19  -2.0314890032141131e-18  -2.4972615538739660e-18  -1.2593303930248445e-18  -1.4749688023730496e-19  9.4088774607721008e-21  -1.2870105038055387e-20  -2.3220992852111340e-19  -1.3309785955220525e-19  2.3526751235075544e-19  9.7011687160757413e-20  -2.2452412504959209e-18  -7.3705215624414634e-19  -6.2165031199480433e-19  -9.6015093922132403e-19  -3.3513980447672504e-18  -4.4776048697617538e-18  -3.3843446260574285e-18  -1.8315762476098396e-18  1.4960495342272756e-19  -9.0112664264808674e-19  -1.8992570535252418e-18  -8.8434255269255546e-19  -1.2908015720909678e-18  -4.8390580502586343e-19  -5.1532461226689779e-19  -8.6383617293375448e-19  -1.5281449279621689e-19  4.4815248532625562e-20  -8.1217572209267147e-02  -7.0670629502341348e-02  -6.1334214685292335e-02  -5.3710641248723170e-02  -4.8136066766794966e-02  -4.4254731988364444e-02  -4.2099221013120747e-02  -4.1034680852253334e-02  -4.1656431778898328e-02  -4.3636245436897377e-02  -4.7055203672897200e-02  -5.2120630416968836e-02  -5.9276624047224842e-02  -6.8276908689737500e-02  -7.8434794018814688e-02  -8.2950416018344103e-02  -7.5683809630921015e-02  -6.8116866139279017e-02  -6.1537302276329475e-02  -5.5945492748976179e-02  -5.1581381301257070e-02  -4.8210012770792121e-02  -4.5870851875507337e-02  -4.4525324352944443e-02  -4.4034874631154138e-02  -4.4431002469629166e-02  -4.5845758388016189e-02  -4.8033401145816272e-02  -5.1687028581233224e-02  -5.6120872095807628e-02  -6.1659240246608918e-02  -6.8271075020087973e-02  -7.5923885348123069e-02  -8.3209033288120668e-02  -7.8689098497038590e-02  -6.8769445599119128e-02  -5.9851532217210943e-02  -5.2657253877979676e-02  -4.7511749607080163e-02  -4.3940291644241861e-02  -4.1896220311189170e-02  -4.1300022836169063e-02  -4.2025383767979888e-02  -4.4205354684096136e-02  -4.8191065966546709e-02  -5.3651259683452190e-02  -6.1403222305338560e-02  -7.0816463959158915e-02  -8.1285944162301310e-02  -8.6616084943157895e-02  -7.9432132219594248e-02  -7.2035669972014951e-02  -6.5535720224982663e-02  -6.0224947507871010e-02  -5.5891769450934312e-02  -5.2283731725842830e-02  -5.0136105963573679e-02  -4.8693053214252990e-02  -4.8166241529086509e-02  -4.8640729605594207e-02  -4.9931919690070249e-02  -5.2281626795664497e-02  -5.5564511096156358e-02  -5.9810963519095220e-02  -6.5284393927205642e-02  -7.1826474917483313e-02  -7.9240040725149827e-02  -8.6375897448806749e-02  -1.3642171826033942e-02  -3.7771451248692304e-03  -1.6848835534100676e-02  -4.8456938769538948e-03  -1.2097731723731690e-02  -1.1756206575193454e-02  -1.3883166227797285e-02  -5.8304971674905870e-03  6.9332125932860579e-04  1.0930037686112920e-04  2.2971936069751059e-03  -1.7694716221762356e-03  -7.8930805629358789e-05  1.4509219413082017e-03  -1.9170203573610500e-02  8.0971820238436073e-03  -1.5207773963476303e-02  -1.5754655793845017e-02  1.2324890615659379e-03  -2.5589079152081268e-02  -3.0769573566171354e-02  -3.0068138939733383e-02  -3.5365792345098110e-02  -3.1739834077819135e-02  -4.2269850668372862e-02  -4.2293200446966300e-02  -4.7196220332361871e-02  -4.3429998199002749e-02  -2.4835946520667743e-02  8.4770159216316179e-04  9.6771161187732997e-03  2.6679860937596545e-02  3.6758364988859232e-02  5.3749226138698064e-02  6.5738896709762309e-02  7.8825245634476071e-02  3.9561979718783044e-02  9.2333028904194550e-02  1.0096816470598141e-01  7.7492520161819095e-02  9.6380320383420814e-02  7.0783760541577589e-02  8.0415001218758761e-02  1.0361951272933326e-01  8.4179648371956003e-02  9.9966064859575973e-02  7.5965738509632091e-02  8.1936669034689436e-02  5.7605663271505347e-02  5.6788743734443689e-02  7.2689359790981622e-02  9.6146511289101941e-02  7.9152008566451978e-02  9.7856412018581390e-02  7.8559984239817665e-02  9.4209168677183819e-02  7.2299834233433710e-02  8.4608423958840148e-02  5.8158533079667889e-02  7.3060453186914509e-02  9.6897023039648367e-02  7.7131526478989756e-02  9.6872985351189655e-02  5.3550551913663674e-02  5.1959496507976301e-02  3.8075687900473471e-02  4.2740800790443761e-02  5.2528579921597186e-02  4.0128410421131591e-02  5.9615903376246400e-02  8.4055789414319668e-02  1.6944172124415950e-02  3.4255781936355131e-02  4.6436624839390019e-02  4.0494819868614564e-02  5.5930527826830050e-02  8.6736859882160747e-02  5.2691032691149130e-02  7.9980052132000962e-02  1.0615671492225208e-01  9.1870786930357176e-02  6.8729221734823501e-02  7.4007806098914428e-02  1.0203743138145688e-01  7.7752585031262728e-02  5.4746616602533743e-02  5.4410998597862407e-02  6.9281071547582312e-02  3.3926081396230198e-02  2.8886136112567525e-02  9.5898492890037160e-03  9.1642832455673950e-03  1.1315524827776945e-01  2.7047078355479523e-02  2.8401236718102733e-02  2.2480678044620755e-02  3.9660857231283618e-02  5.8631159091690156e-03  5.0949738257495244e-04  1.5409780165622788e-02  4.9505763308557195e-02  2.6767056115101436e-02  1.4955769447459100e-02  3.3601928864069763e-02  5.8858357838245196e-02  3.7185853779692864e-02  3.1542134553276799e-02  5.4746210761599419e-02  3.3150914240924666e-02  1.3916321509313030e-02  6.0855453371670143e-03  1.8228446884404260e-02  2.0300945514767799e-02  2.9985849547524836e-02  1.0290746501651498e-02  5.0800460278801349e-02  1.1719789247512181e-01  1.1734777672024074e-02  1.1724682809915549e-01  7.2167384351215905e-02  4.4520239879620199e-02  6.7884112133738489e-02  4.2323612077887270e-02  2.1630914333525549e-02  1.7457062320869965e-02  3.2576821959129261e-02  5.0167936443172197e-02  3.1859461467506511e-02  2.7507038129668517e-02  1.0559353167544944e-01  -9.5883575155267069e-03  -1.2429282917574494e-02  4.4258743129536586e-02  1.9575922188048402e-02  2.7322852912734594e-02  4.1753062743008697e-02  3.1518013862923161e-02  1.1492975054597168e-02  2.8439048826113436e-02  1.0634141873248567e-02  7.9832081154011282e-03  -6.1734689289284616e-03  -2.0986891434473513e-02  -2.0823897053610815e-02  2.1896585254442498e-02  4.7040880339354373e-03  -2.4841503120904868e-04  -8.3918372459274929e-03  -2.6905010768154151e-02  -2.9268563224146660e-02  -5.1416281993622607e-03  2.1217881987812319e-02  4.3718030379130808e-02  -1.6501262467857439e-02  -1.0220430364594239e-02  1.3693860604534357e-03  -2.2159916537572478e-02  2.8493718214865986e-03  4.8998370473361738e-03  -7.7417008229917900e-03  -3.1038370848438194e-02  -8.5100706113647624e-03  2.1669670590956206e-04  -9.6913745937465372e-03  1.2075985855621420e-02  -6.6103471662490795e-03  1.2827920814721325e-02  -3.2553862828111763e-03  -1.8865558131890389e-02  -3.5601553914405441e-02  -2.5296963928554891e-02  8.2788165655457539e-03  3.4635090283345590e-02  -1.0888384011759631e-02  -7.5953730021738946e-03  4.3969657956075157e-03  -4.3869518411378546e-02  -4.7198360465909535e-02  -4.5571927956568385e-02  -4.4507440486596821e-02  -3.6319641684639083e-03  1.0714204247796240e-01  1.1965500622695836e-01  2.2897677334140554e-02  -1.0125349622264442e-02  -1.1218046683486050e-02  -7.4871413200312889e-03  -3.0765259558779390e-02  2.1600443499064912e-03  -1.9047726066623752e-03  2.6217567071542189e-02  4.5095139679470257e-02  3.9316759426255444e-03  4.6458515739306788e-02  1.1468803275574334e-01  1.1308052763606856e-01  8.9586746463573522e-02  1.5022478699526901e-02  1.6689879706907990e-03  2.3401720471527304e-02  1.7556223743029346e-02  2.3257223626855256e-02  -1.7394166068694422e-03  -1.0825259755994066e-03  1.1027266952423261e-01  -1.3321270198639840e-02  2.0264355857451091e-02  1.6325322567561484e-02  5.3082712514060895e-02  2.6436490350540015e-03  4.6326364201947891e-02  8.9211311045006791e-02  -4.2185948880061434e-03  1.2323492982697389e-01  6.1024900661161056e-02  -2.7485224156849876e-02  4.5939689280153809e-02  2.4977511394953474e-02  1.7284326970888712e-02  1.0800732127984061e-01  -3.8164635662570738e-03  9.5040224187390599e-03  2.2211314059245889e-02  1.2509481196792310e-01  1.6482673932391376e-02  2.6091537986331723e-02  1.1980275847333649e-01  5.8461163210199035e-02  2.7468948485709969e-02  1.2472668113649110e-01  4.6909538440578498e-02  1.0225775252770880e-02  2.7605876356819018e-03  3.1570191724778991e-02  5.5510423551528472e-02  2.4060931661596233e-02  -5.8049711486284246e-03  4.3970909409614636e-02  -5.4428741652946575e-02  -5.4721936403517808e-02  -5.7413221907286441e-02  -5.7628321246408001e-02  8.0296635245395136e-03  -1.1097516096060297e-02  1.1888183596269759e-02  -1.2573251071727027e-03  2.1163290261387788e-02  5.9845414300970519e-02  -1.0165050318825506e-02  4.0015117722423761e-03  3.7389735876691539e-02  6.6665023138617122e-02  5.7155012478269270e-02  6.9453229565756933e-02  6.6698200716227814e-03  6.6889700483556983e-02  2.6074083105102262e-02  7.6125195059163486e-02  1.2363999003717924e-01  3.2143324750944988e-02  5.4588332067644407e-02  3.8444570029032586e-02  2.5038493169949716e-02  6.4433348735865620e-02  6.8601698205059819e-02  1.1604401265649314e-01  -2.2979577812296887e-02  -7.7396301525659336e-02  -7.7712438434548364e-02  -8.5764139005847007e-02  -1.0032448809082738e-01  -8.6187686438336006e-02  -1.0121456725650978e-01  -7.3135383929960773e-02  -8.0949847326863583e-02  -7.3074282318510222e-02  -8.1327716742211537e-02  -9.6539229291733947e-02  -9.6429189850209582e-02  -5.4116100937668769e-02  -4.3958872601530211e-02  -5.4323764906318239e-02  -5.0010349946472771e-02  -6.6380942757722397e-02  -8.7228335755533529e-02  -8.5536383107597244e-02  -6.5852065661806444e-02  -1.0523422752632022e-01  -1.1394056532619719e-01  -6.9239206641499018e-02  -6.8068010442664986e-02  -9.3201586482290280e-02  -1.1297490631589223e-01  -1.2143339666818358e-01  -1.2314834552980151e-01  -1.2929756653566674e-01  -1.3147660089093191e-01  -5.5758997989081738e-02  -4.7957617430558271e-02  -4.9673624444036946e-02  -5.3596885876276625e-02  -4.5051488305803210e-02  -4.1680735346499527e-02  -4.4529637306850015e-02  -1.3534247058568080e-01  -1.3767708087163383e-01  -1.1923979158972382e-01  -1.1100894716321441e-01  -3.1041514695327579e-02  -3.7807462843866081e-02  -3.5078569440314324e-02  -2.6798964957972207e-02  -2.8217465992323158e-02  -2.5910981686513530e-02  -3.7321775510930265e-02  -4.9859051258676311e-02  -1.1495815979603254e-01  -1.0734398038183177e-01  -5.6544566528729287e-02  -4.5154019767188996e-02  -5.1529791426108619e-02  -1.0777686720270854e-01  -1.1182762427634112e-01  -1.1766464648878038e-01  -1.2164179957751574e-01  -1.2705615439039841e-01  -1.2900845589617457e-01  -1.2281139709707796e-01  -1.3309133464832276e-01  -1.3186258867281705e-01  -1.3131538972695445e-01  -1.1146236134966298e-01  -1.1575963348446040e-01  -1.2172799181930839e-01  -1.2552205943215641e-01  -1.1975880111452651e-01  -1.3135708769083176e-01  -1.3295636801525995e-01  -1.3754437946785861e-01  -1.3663760906530539e-01  -1.3564786866476522e-01  -7.7630560147799857e-02  -1.0244615833671476e-01  -1.1080278347307683e-01  -1.1018141815442682e-01  -1.1829789073676612e-01  -1.1960501848907788e-01  -1.2569934479629005e-01  -1.2753105800544934e-01  -1.3132976908665822e-01  -1.3342262937471566e-01  -6.4431785384273021e-02  -6.4432399538677271e-02  -7.3721590228850900e-02  -7.2971271948169422e-02  -1.2285707303006757e-01  -1.3907021234537278e-01  -1.3883542236175356e-01  -1.3274647149837954e-01  -1.3422991393168535e-01  -1.3347180493157343e-01  -4.8508165494499829e-02  -1.3361992917609145e-01  -1.3346805414238511e-01  -1.3705147397768347e-01  -1.3866682856277898e-01  -1.3869623818384391e-01  -1.3093160102616153e-01  -7.8691702524939677e-02  -1.3454587330205392e-01  -1.2950953652666575e-01  -4.3931991611953082e-02  -3.8567290001863083e-02  -4.1503964850926299e-02  -1.2783561106806951e-01  -1.3356758057307599e-01  -1.0454721831941909e-01  -9.7330083170731066e-02  -1.3136166571093366e-01  -1.3210513296650483e-01  -1.3676467240469681e-01  -1.3773403819729074e-01  -1.3435987997198004e-01  -1.3662903007941229e-01  -1.3246806371401124e-01  -1.3332793355826073e-01  -1.3001529282330387e-01  -1.2991779781220028e-01  -1.2882780626184470e-01  -1.3059918284629807e-01  -1.2613220101158409e-01  -1.2696466828505765e-01  -1.2306916347917671e-01  -1.2351393453258960e-01  -1.2022984842655227e-01  -1.2063600824823804e-01  -1.1766221016165708e-01  -1.1866524970730914e-01  -1.1617163494900318e-01  -1.1795503125476496e-01  -1.1568496134866942e-01  -1.1844925536855261e-01  -1.2717040791150475e-01  -1.2726232128344936e-01  -1.2467839611555830e-01  -1.2547203790994535e-01  -1.2326837456862945e-01  -1.2489638816247960e-01  -1.2275487107039636e-01  -1.2539627299654893e-01  -1.2697606296154551e-01  -1.2476798187067867e-01  -1.1934749338367305e-01  -1.2338790580284820e-01  -1.3148528318573244e-01  -1.2813748701019695e-01  -1.1632499822265287e-01  -1.2009024791618035e-01  -1.1754445050839231e-01  -1.2244324328141529e-01  -1.1933936633510901e-01  -1.2331196769703094e-01  -1.2688578652485211e-01  -1.2433145653571803e-01  -1.2913006289398651e-01  -1.2605970754484791e-01  -1.3052455545850744e-01  -1.2839875536185269e-01  -1.2110363681775456e-01  -1.2200420325558137e-01  -1.2547149665740054e-01  -1.1552171629323554e-01  -1.1900646876915867e-01  -1.1689671282970893e-01  -1.2074392765296077e-01  -1.1115653393007413e-01  -1.1557189060241829e-01  -1.1844936057922219e-01  -1.0464769607857215e-01  -1.1200335901076025e-01  -1.2474757385868172e-01  -1.1689536974195264e-01  -1.1371271421037446e-01  -1.1176088916829813e-01  -1.3144639539443470e-01  -1.2105980744088662e-01  -1.2314428200426089e-01  -1.1694483032813108e-01  -1.1764810501589455e-01  -8.6249697178328366e-02  -9.2155175979100834e-02  -7.9359903032613602e-02  -9.1562576001863821e-02  -1.0832744294284996e-01  -1.1581924956737265e-01  -9.0079025778558641e-02  -1.2676842999152621e-01  -3.6609300444128155e-02  -1.0184357228930491e-01  -1.3319215951666005e-01  -1.1622740489044646e-01  -7.4714715517330887e-02  -8.3987158785166063e-02  -1.0926599142538893e-01  -1.1279266901142831e-01  -1.1700331920212600e-01  -1.0188533910290504e-01  -1.0888200060387172e-01  -1.0153153876574854e-01  -1.0621251864754606e-01  -9.8877079759441960e-02  -9.8127991318574220e-02  -9.0957965903545282e-02  -1.0739865157723784e-01  -9.1193721914409387e-02  -8.5246356608448440e-02  -8.4514184629619016e-02  -8.0916371823478675e-02  -8.0714114728003702e-02  -7.8703991379782956e-02  -7.8888128122546392e-02  -1.1273761527974603e-01  -1.1867791772878399e-01  -1.1110422788579276e-01  -1.1889568072988434e-01  -8.8487728053472450e-02  -8.3329587426493684e-02  -9.5582180513151815e-02  -7.9558575061604450e-02  -1.1429298825116604e-01  -1.1135822769881462e-01  -7.0758488457713611e-02  -3.1336149747499868e-02  -3.9673036626344624e-02  -3.4427009012068840e-02  -1.0756527115071833e-01  -1.0413945968770226e-01  -1.2178688734273266e-01  -1.1017528476106403e-01  -1.1142858526321527e-01  -9.5422086107131987e-02  -1.0061002754985456e-01  -9.4441756458042897e-02  -9.5544286094104813e-02  -9.9337926101378399e-02  -1.0496355099129630e-01  -9.6870895664504228e-02  -8.6351331751588878e-02  -8.7865506538241239e-02  -8.8420916739357383e-02  -8.3738237019474651e-02  -8.0517747112815424e-02  -8.0717918806395228e-02  -7.3211195988821351e-02  -7.8049085635528051e-02  -7.8036847153995892e-02  -7.9255735164536850e-02  -7.6349589265699472e-02  -8.2057246886907506e-02  -7.5581298261786597e-02  -8.5339987063189404e-02  -8.4669094753562379e-02  -9.0877023981929095e-02  -8.9122678473979214e-02  -9.8530649702192094e-02  -9.2315907073328013e-02  -1.0757504354573484e-01  -9.3883409985985086e-02  -1.1064714608630448e-01  -1.0894930280993516e-01  -1.1505521024137082e-01  -1.0712169941727209e-01  -1.2729525797724467e-01  -1.1727665104282206e-01  -7.6116083568951096e-02  -8.7400843908382805e-02  -1.0308821635348370e-01  -1.0111333375249604e-01  -1.1650982302906593e-01  -7.7912400285738231e-02  -1.2993457965203439e-01  -7.0703537872041630e-02  -9.5973127771047329e-02  -8.3085246070838975e-02  -1.0431119245659104e-01  -8.8175889151187015e-02  -1.0914028276095042e-01  -7.5265363349675610e-02  -1.0425466579945325e-01  -1.0518063853683937e-01  -9.0569481078676392e-02  -8.7303082974687529e-02  -9.9415267129574394e-02  -8.1371268399794361e-02  -7.7240491641764400e-02  -8.7154271723280399e-02  -9.3330563697388139e-02  -1.10761562