<?xml version="1.0"?>
<VTKFile type="UnstructuredGrid"  version="0.1"  >
<UnstructuredGrid>
<Piece  NumberOfPoints="1297" NumberOfCells="2496">
<Points>
<DataArray  type="Float64"  NumberOfComponents="3"  format="ascii">0 0 0  0 1 0  1 1 0  1 0 0  1.1 -0.1 0  -0.1 -0.1 0  1.1 1.1 0  -0.1 1.1 0  0.2408871533696444 0.6969991750627716 0  0.2397053292396313 0.3046416257327036 0  0.7599176997761802 0.3041148718615697 0  0.7606362994763599 0.6961383762734276 0  0.5001708118067189 0.5004890859701533 0  0 0.9499999999997918 0  0 0.8999999999995836 0  0 0.8499999999996529 0  0 0.7999999999999998 0  0 0.7500000000003466 0  0 0.7000000000006934 0  0 0.6500000000010401 0  0 0.6000000000013869 0  0 0.5500000000017335 0  0 0.5000000000020587 0  0 0.4500000000018723 0  0 0.4000000000016644 0  0 0.3500000000014564 0  0 0.3000000000012483 0  0 0.2500000000010403 0  0 0.2000000000008322 0  0 0.1500000000006241 0  0 0.100000000000416 0  0 0.05000000000020799 0  0.04999999999989965 0 0  0.09999999999981467 0 0  0.1499999999997036 0 0  0.1999999999995579 0 0  0.2499999999994121 0 0  0.2999999999992664 0 0  0.3499999999991206 0 0  0.3999999999989749 0 0  0.4499999999988292 0 0  0.4999999999986943 0 0  0.5499999999988151 0 0  0.5999999999989468 0 0  0.6499999999990784 0 0  0.69999999999921 0 0  0.7499999999993417 0 0  0.7999999999994734 0 0  0.8499999999996051 0 0  0.8999999999997368 0 0  0.9499999999998684 0 0  1 0.04999999999989965 0  1 0.09999999999981467 0  1 0.1499999999997036 0  1 0.1999999999995579 0  1 0.2499999999994121 0  1 0.2999999999992664 0  1 0.3499999999991206 0  1 0.3999999999989749 0  1 0.4499999999988292 0  1 0.4999999999986943 0  1 0.5499999999988151 0  1 0.5999999999989468 0  1 0.6499999999990784 0  1 0.69999999999921 0  1 0.7499999999993417 0  1 0.7999999999994734 0  1 0.8499999999996051 0  1 0.8999999999997368 0  1 0.9499999999998684 0  0.9499999999997918 1 0  0.8999999999995836 1 0  0.8499999999996529 1 0  0.7999999999999998 1 0  0.7500000000003466 1 0  0.7000000000006934 1 0  0.6500000000010401 1 0  0.6000000000013869 1 0  0.5500000000017335 1 0  0.5000000000020587 1 0  0.4500000000018723 1 0  0.4000000000016644 1 0  0.3500000000014564 1 0  0.3000000000012483 1 0  0.2500000000010403 1 0  0.2000000000008322 1 0  0.1500000000006241 1 0  0.100000000000416 1 0  0.05000000000020799 1 0  -0.1 1.05000000000004 0  -0.1 1.000000000000079 0  -0.1 0.9500000000001624 0  -0.1 0.9000000000003032 0  -0.1 0.850000000000444 0  -0.1 0.8000000000005848 0  -0.1 0.7500000000007256 0  -0.1 0.7000000000008665 0  -0.1 0.6500000000010508 0  -0.1 0.6000000000012352 0  -0.1 0.5500000000014196 0  -0.1 0.500000000001539 0  -0.1 0.4500000000014195 0  -0.1 0.4000000000013 0  -0.1 0.3500000000011588 0  -0.1 0.3000000000010178 0  -0.1 0.2500000000008986 0  -0.1 0.2000000000007579 0  -0.1 0.1500000000006174 0  -0.1 0.1000000000005272 0  -0.1 0.05000000000040083 0  -0.1 2.671196597248127e-13 0  -0.1 -0.0499999999998666 0  -0.0500000000000906 -0.1 0  -1.730560139634463e-13 -0.1 0  0.04999999999975802 -0.1 0  0.09999999999961506 -0.1 0  0.1499999999994613 -0.1 0  0.199999999999302 -0.1 0  0.2499999999991446 -0.1 0  0.2999999999990088 -0.1 0  0.3499999999988296 -0.1 0  0.3999999999986936 -0.1 0  0.4499999999985143 -0.1 0  0.4999999999984002 -0.1 0  0.5499999999985247 -0.1 0  0.5999999999986493 -0.1 0  0.6499999999987955 -0.1 0  0.6999999999989417 -0.1 0  0.7499999999990659 -0.1 0  0.7999999999992116 -0.1 0  0.8499999999993573 -0.1 0  0.8999999999994526 -0.1 0  0.949999999999584 -0.1 0  0.9999999999997226 -0.1 0  1.049999999999861 -0.1 0  1.1 -0.0500000000000906 0  1.1 -1.730560139634463e-13 0  1.1 0.04999999999975802 0  1.1 0.09999999999961506 0  1.1 0.1499999999994613 0  1.1 0.199999999999302 0  1.1 0.2499999999991446 0  1.1 0.2999999999990088 0  1.1 0.3499999999988296 0  1.1 0.3999999999986936 0  1.1 0.4499999999985143 0  1.1 0.4999999999984002 0  1.1 0.5499999999985247 0  1.1 0.5999999999986493 0  1.1 0.6499999999987955 0  1.1 0.6999999999989417 0  1.1 0.7499999999990659 0  1.1 0.7999999999992116 0  1.1 0.8499999999993573 0  1.1 0.8999999999994526 0  1.1 0.949999999999584 0  1.1 0.9999999999997226 0  1.1 1.049999999999861 0  1.05000000000004 1.1 0  1.000000000000079 1.1 0  0.9500000000001624 1.1 0  0.9000000000003032 1.1 0  0.850000000000444 1.1 0  0.8000000000005848 1.1 0  0.7500000000007256 1.1 0  0.7000000000008665 1.1 0  0.6500000000010508 1.1 0  0.6000000000012352 1.1 0  0.5500000000014196 1.1 0  0.500000000001539 1.1 0  0.4500000000014195 1.1 0  0.4000000000013 1.1 0  0.3500000000011588 1.1 0  0.3000000000010178 1.1 0  0.2500000000008986 1.1 0  0.2000000000007579 1.1 0  0.1500000000006174 1.1 0  0.1000000000005272 1.1 0  0.05000000000040083 1.1 0  2.671196597248127e-13 1.1 0  -0.0499999999998666 1.1 0  0.2325876964446091 0.6738988016796916 0  0.2269419752698322 0.6488163712070777 0  0.2219601620522291 0.6234278565941672 0  0.2178164963856995 0.5982777922285177 0  0.2144175027063324 0.5735522308362984 0  0.2116519977043597 0.5491896692936333 0  0.2097084423311779 0.5250039488761996 0  0.2092563573780699 0.500839239514249 0  0.2097114069021845 0.4766994931519608 0  0.2113183033439694 0.45241276438944 0  0.2138497057237375 0.4280185866106949 0  0.2171836781504129 0.4034372941748028 0  0.2211169249548516 0.3784741745676342 0  0.2259229242981467 0.3530835734512088 0  0.2313407394084167 0.3278964243997463 0  0.2637977889628428 0.2991819150646689 0  0.2898474498574724 0.295913415335626 0  0.3164139511432568 0.2930953734895779 0  0.3430109405560797 0.2904531140789274 0  0.3695196275588631 0.288190565912302 0  0.3958318204124063 0.2862126367128685 0  0.421950711790537 0.2845230975437952 0  0.4479676784861733 0.2831107211785919 0  0.4739603523273142 0.282366663735682 0  0.499879964652307 0.2821065813372809 0  0.5257953305045941 0.2824176969983025 0  0.5517544669888442 0.283227353254427 0  0.5778210430093088 0.2844123970047712 0  0.6039777371004877 0.2861353688654241 0  0.6303744914977466 0.2880215373920786 0  0.6569172884869843 0.2902042324003991 0  0.6834630880249511 0.2927584525270426 0  0.7099376968806386 0.2955303110366803 0  0.735871962281849 0.2986826145405017 0  0.7680010370525264 0.3272649882664628 0  0.7738265011136197 0.3522390290707607 0  0.7787560530241803 0.3776268923587761 0  0.7828141911471179 0.4027130941199348 0  0.786159162381316 0.4273843635941659 0  0.7887393012014423 0.4517677176726061 0  0.7902380805587529 0.4759382407500283 0  0.7905974778353453 0.4999150319888117 0  0.7898213933833438 0.5238559211987442 0  0.7882119835977561 0.5478672052742204 0  0.785919570267419 0.57222486076529 0  0.7826860143031829 0.5968388038877271 0  0.7791049364282719 0.6221492857604233 0  0.7743781474443958 0.6476757418582944 0  0.7687836767541975 0.6728572462475066 0  0.7365679404551789 0.7016670707410413 0  0.7105981897249981 0.7048147580583483 0  0.6842180998833169 0.7077855588131466 0  0.6576612743946865 0.7105198484833142 0  0.631130601032868 0.7129412499396777 0  0.6046786389233965 0.7149723840162659 0  0.5785117679018055 0.7167533142539194 0  0.5524757520732556 0.7179704911780844 0  0.5265599928266294 0.7187394394890898 0  0.5007152128186383 0.7189883263180235 0  0.4748540338240091 0.7187761574400509 0  0.4489338264180238 0.7179579386884118 0  0.4229699809544155 0.7166126361758084 0  0.3967997094863784 0.7150172269005632 0  0.3704169845272823 0.7130862341562995 0  0.3439463321317803 0.7108068484704931 0  0.3173760148066823 0.7082754981515533 0  0.2908613154586052 0.7054973902477081 0  0.2648984931105515 0.7023342841066588 0  0.3545238813630256 0.3131744676044492 0  0.2391644433102414 0.4395279622220591 0  0.355390783303247 0.6880989169764462 0  0.2395897683205959 0.5620597102818596 0  0.7600840769724584 0.5851682305502016 0  0.6192106862628143 0.6910397124858887 0  0.6441968381942067 0.3124212735691411 0  0.762647185842614 0.4380957076852808 0  0.763999192900474 0.5114322931705836 0  0.564818769874614 0.3062868298958249 0  0.4352196780505043 0.3083572410864281 0  0.4345803104233512 0.693169530514417 0  0.5399611335713169 0.6946596712308172 0  0.2365012885242947 0.4885626301356484 0  0.2428399070489809 0.3897231786963229 0  0.4869641301271116 0.3090680595709205 0  0.2502553505247039 0.6101263276334592 0  0.7502198437114768 0.386831324024978 0  0.4875725827221886 0.6950946892890014 0  0.6729121750732742 0.6858600047787777 0  0.2999771893517469 0.3201779324767438 0  0.7002849664619492 0.3212374945666289 0  0.3019280475267199 0.6835855811344013 0  0.7504602553058543 0.6377266962795636 0  0.2527806413701362 0.3395189609990146 0  0.2566303431715858 0.66051516279764 0  0.7263037267427375 0.6803637681571693 0  0.7477155293180583 0.3383041514121475 0  0.3286230942817159 0.6859263612773635 0  0.3404497228581189 0.663883286470339 0  0.3671508132638091 0.6654362899520186 0  0.3517226050282378 0.6412164410355959 0  0.3796588716745412 0.6423979829077817 0  0.363097278999639 0.6156454844392208 0  0.3965559852483941 0.6167076022117245 0  0.3768136969921173 0.5849052979639743 0  0.3299913597266323 0.6137447239205603 0  0.4175737942883166 0.5852477528237657 0  0.393426557320895 0.5490669238402985 0  0.345613483601354 0.5546284998929086 0  0.3657085692947661 0.5150108075187363 0  0.3203573018593979 0.5172267914335338 0  0.3360382073246225 0.4821838391275738 0  0.3837151134709515 0.4768201234025871 0  0.3584724133245456 0.4437575181032117 0  0.4017951384423382 0.4383698732284331 0  0.3779070286121228 0.407024884912687 0  0.4175496471071267 0.3952679245104214 0  0.3367819100978637 0.4083931324072343 0  0.3891596709039906 0.373803948974992 0  0.4289477703483611 0.6189060519172577 0  0.4590936721376541 0.5931802800578125 0  0.4811605417178424 0.6195044569231457 0  0.5029500834893854 0.5947756079134201 0  0.5238340990208523 0.6196700197803869 0  0.5457406091289821 0.5951827318742586 0  0.566029915615951 0.6203299889155967 0  0.5880312710832151 0.5961359719888019 0  0.6087883682563343 0.6239056625910373 0  0.630068192773241 0.5903220544906636 0  0.6111365577404725
[...]
<PointData  Scalars="v"> 
<DataArray  type="Float64"  Name="v"  format="ascii">4.1997618857107544e-21  6.4870481116489583e-21  -8.5766681868828131e-22  3.2993718171104147e-21  -1.0590831069665256e-22  -1.1014230756066277e-22  3.8003955502258918e-24  -3.9079433076194856e-22  -3.9275718011034884e-05  -2.0096273699953664e-05  -2.2304884550676970e-05  -4.2528609983318654e-05  1.0357589928470976e-05  1.1958855783344410e-20  2.4157200344073008e-20  -1.2037478614640664e-20  -4.3248970091398098e-20  6.8354226594176204e-20  1.2816113816661973e-19  -5.1776578051988252e-20  2.5125252407657769e-19  2.5125263878681403e-19  -3.2377138122152460e-19  -9.2158442168951758e-21  1.6129602903489427e-19  4.9754823404774102e-20  -2.9876485045895748e-20  -2.5679106679897907e-20  1.3447877172773106e-20  -4.5500422091765329e-22  -2.6412790552425121e-20  1.9361849877041857e-20  -7.5355658002652350e-21  1.3680685969522877e-20  5.0005828668616050e-20  -6.1245670555389552e-21  3.7543107891968246e-21  6.4059077205674211e-20  8.1863681703167855e-20  4.1812760825063090e-20  -9.7320038422660580e-20  9.7435407244668182e-20  -7.7837279690719926e-20  -1.0451902924304915e-19  7.5222592173091342e-20  5.6827736356198883e-21  -3.3402121874897887e-21  1.0513908782282089e-19  -6.4753203538382919e-21  2.0942242896384418e-20  -3.4202430020458815e-21  1.5493063338422369e-20  1.5650571840322889e-20  -2.2552560751501772e-20  1.3195581504937225e-20  7.2506175486373177e-20  -3.9764009933871859e-20  8.8135434695835938e-21  2.7943453747438971e-19  -2.1424634027512892e-20  6.1021317560238286e-21  3.1179543621876373e-20  8.5127564120067327e-20  -2.0631924605156234e-22  -3.5649568819354389e-20  3.6564078445479194e-20  -5.1060604646617596e-21  8.7183328298363816e-22  4.4746622697078294e-20  3.2823300480374479e-21  -1.4727261835121546e-21  1.0437187853502632e-20  6.1418264597345957e-21  8.2468803089944442e-20  6.1287536714027688e-20  -2.2983078354367992e-20  2.4687567128291995e-20  1.2454450202957811e-19  5.4267010988347523e-20  3.8113936897222209e-20  4.0260612128875656e-20  -5.4820233188674297e-20  -1.7289294141393387e-20  -2.6848817701875195e-20  -2.9823445198287718e-20  -1.5383301167033040e-21  6.2637555330121705e-20  -2.3479543910135929e-20  -3.3037264029585630e-20  4.6696805054582511e-23  5.7183876342248132e-22  2.5201456932224273e-21  2.3251924344920162e-21  -3.4980244160401776e-21  -3.3167116023066208e-21  1.1574167850061911e-20  1.1013512889976092e-20  1.9523728129506365e-21  3.5210267893357469e-20  2.1574998572337695e-20  -2.7042339302253145e-20  -6.6067418972160163e-21  2.1355505283252781e-20  9.5636446623891287e-21  -6.9038038975908935e-21  -5.3525398363948959e-21  -3.2264920173326094e-22  -4.4462228605335980e-22  -2.2908122945277424e-21  1.2721562631496895e-21  1.4420939056926290e-21  -3.1835480167230971e-22  2.6647464049810169e-22  2.2362341021497896e-22  -8.2621494191180509e-22  2.7441446313650596e-21  5.4306246014518100e-21  6.3094087620998768e-23  1.4719440102133969e-21  7.0614026567626263e-21  1.3208060498807840e-20  1.2871326226955842e-21  -5.3719772977057489e-21  5.4961805803972821e-21  -7.1876669704971224e-21  -1.5776179228748822e-20  4.7003497719571877e-21  3.2193340752691524e-21  1.2368826986385698e-21  1.4524787377606419e-20  4.3317942318256876e-21  -2.3419575303330783e-21  6.1165702582043097e-22  -1.5739074290321886e-23  2.0837151909248259e-22  -1.0656603789406085e-22  5.6519713274001899e-22  2.4478466005166355e-21  1.1409721918369366e-21  -2.1768524914510425e-21  2.9754286686587840e-21  8.0074129199750450e-21  -6.6272342781546499e-21  6.4288968304319266e-21  2.8394537796471959e-20  7.4526045111658790e-21  -4.2084473397401842e-21  7.2643873303371489e-21  9.7130060748646460e-21  1.3443450691333478e-22  -3.8584453076578063e-21  5.0333761412208213e-21  -2.3529042878385317e-22  1.0042408441223252e-21  4.6127556490389723e-21  1.4884998188394918e-21  -5.3525593373260215e-22  7.6237284505134634e-23  4.6110053792089620e-23  -2.8611882390240800e-22  2.3708104322548416e-22  2.9080284112171111e-22  4.1358543017180625e-21  3.3402457417770426e-21  8.0822656102927109e-21  -2.1169848394123967e-21  5.6817587017711551e-21  1.1067459050610447e-20  6.1305402696047698e-21  7.1374007573508718e-21  3.1137829919304583e-21  -5.0769259096091625e-21  -4.2489310429182855e-21  -4.0579057091810667e-21  -6.6057051216610911e-21  4.6464800613258631e-21  9.5857759305118460e-21  -2.7053844064974559e-21  -4.3774534005716276e-21  2.4905057811346357e-22  5.5398198656934038e-22  -3.8956335851697891e-05  -3.1243909218741880e-05  -2.2960596746054396e-05  -1.2498986018766269e-05  -1.9852213970684429e-06  4.0763646856180555e-06  7.9242915274077548e-06  1.3251771562703457e-05  1.0275449362213200e-05  8.4344968166284567e-06  4.1386976525337369e-06  -2.0907508772822203e-06  -1.0266821532683569e-05  -1.6969709451292228e-05  -2.0069165054382549e-05  -1.5185650549728161e-05  -6.4631667078670922e-06  3.1980704160785718e-06  1.4372589459577978e-05  2.6507253733306300e-05  3.5989537440738611e-05  4.3721380374218746e-05  4.7674419793135615e-05  5.1801118078369674e-05  5.2622273262027988e-05  5.1160142721208785e-05  4.7482047919206205e-05  4.1322895995958873e-05  3.3791884465276371e-05  2.3568831479628878e-05  1.1428475313267462e-05  2.0415402400134813e-07  -8.6726313234820863e-06  -1.8184595623210727e-05  -2.1271962690255899e-05  -1.8418447733765931e-05  -1.2000869864758878e-05  -3.9894328755714086e-06  1.7114794034170686e-06  6.3110315241302345e-06  9.0265402303803986e-06  9.9442416361053525e-06  6.4297004749950649e-06  1.9919554265397273e-06  -5.4337333346158855e-06  -1.4050760116442797e-05  -2.5219321311575921e-05  -3.3375413658030638e-05  -4.0503544818376674e-05  -4.1372972850622905e-05  -3.3697721604200404e-05  -2.7220437985288195e-05  -1.8189256291850344e-05  -7.8494608699414977e-06  1.3592798337132128e-06  8.4992927053029051e-06  1.4310656924227893e-05  1.7660697209519421e-05  1.9171472351652024e-05  1.7926856667128796e-05  1.5074117195804488e-05  1.0658269817754313e-05  3.7913891182699828e-06  -4.9951876456991114e-06  -1.4634634834351099e-05  -2.3485996897244458e-05  -3.0556455692135647e-05  -3.6048249597589319e-05  1.2896947461888235e-05  -4.6519989126350230e-07  -1.4542559420089049e-05  -8.0758045369513673e-06  -1.8470201681792273e-05  -8.9767709670743919e-06  1.1308138983586718e-05  -2.9081954310718758e-06  -1.7971487244316474e-06  3.6793783581834914e-05  3.8030850204619767e-05  6.7121544385495804e-06  9.7720598638501871e-06  2.6207712099490352e-06  -9.2103066969450248e-06  4.4246586578065610e-05  -2.2216684471663449e-05  -1.1813442135994054e-05  1.2638878935508959e-05  -2.7292588861278311e-05  -7.1389161452195543e-06  -9.7751127623640405e-06  -3.5602132290124943e-05  -3.8149484063774263e-05  -3.2684640730449363e-05  -4.7399077177414814e-05  -5.6470797510586561e-05  -3.5692478722855143e-05  -2.3146016875865758e-05  -1.9503513145953846e-05  -1.0899067461934922e-05  -1.4872196469569008e-05  -6.9807582785405322e-06  -1.0290438080604127e-05  -3.0636828175469633e-06  -6.3783735849655986e-06  -1.8859489361611065e-05  -4.3535603212312226e-08  -1.4935783143792316e-06  -7.0446226130021413e-06  -8.7053024187246212e-07  -3.2971558497092416e-06  2.8156501789475873e-07  4.4004022928771294e-06  4.2138911460044658e-06  1.0654716022078661e-05  1.0511134801161556e-05  1.9196214779564207e-05  2.7908947583724066e-06  1.7340992713192855e-05  1.5428530366091255e-06  4.2818856849101604e-06  6.5640236610366506e-06  5.1041713350032772e-06  6.5517142659231599e-06  2.1103925552445553e-06  4.4001448602390412e-07  -3.6647870216696044e-06  -7.6421850815850430e-06  -1.0363391408543898e-05  -4.6392723412579716e-06  -8.8612547957179415e-06  -2.6416762959595991e-06  -1.6556128926576465e-05  -1.2402829139319170e-05  -1.8954361215749360e-06  8.8415078174881898e-06  -7.0300670913480213e-06  -2.0330828167569921e-06  2.9431163929078170e-05  2.6699781152650197e-05  -3.3898038330386573e-06  2.8456225931591723e-05  1.0588660575721550e-05  7.7685890201087879e-06  3.6419082069545195e-05  2.8871698904750126e-05  3.7536450827034003e-05  2.8053963232624709e-05  2.0892339697068661e-05  1.9457632571057723e-05  2.3332253152244582e-05  1.4089473032622904e-05  8.4439445459685803e-06  6.2477433646317736e-06  6.7214684094556851e-06  1.8800323233932921e-08  1.9949421389986679e-07  -3.5940310350184402e-06  -7.5812042709746333e-06  -8.2741846918321683e-06  -3.9154527122892639e-06  9.0632274347088184e-07  -1.9925491445183925e-05  -2.6388517662311087e-05  -1.2310381137343377e-05  -7.0954753723224825e-06  -2.6940172059345266e-05  -2.9388468241775330e-05  -2.5653617293429802e-05  3.5340116579633036e-05  4.0560053835815137e-05  -7.6615700712224105e-06  3.7215121089292390e-05  1.2512937572689362e-07  -2.5463102122641030e-06  -4.6260772489887713e-06  4.9895800846897463e-08  1.6615939628212351e-06  -7.4592211821206070e-06  -6.1133268063620257e-06  -7.8676990027163214e-07  -5.9725486189942540e-06  -1.1269915395579057e-05  -1.1544705935940412e-06  -1.1934976795909419e-05  1.1653092040438632e-05  -4.1460461117146992e-06  9.2720593606672998e-06  -6.6217866585633594e-06  -3.1724483998484947e-06  -2.3802541654600401e-06  -5.5603406204067743e-07  -1.1344033896150419e-06  -1.0480622209014797e-06  -2.2777923763000732e-06  8.8536094971894892e-06  1.7082842434460790e-05  2.2834909180478410e-06  2.7818076284163852e-06  -8.3975752492162960e-06  -1.1940764637918599e-05  -1.6978097893665219e-05  -1.7430968278368581e-05  5.7032556254187091e-06  1.5608447886304488e-05  2.6255997804905898e-05  1.3801584412726126e-05  -1.9477267389187137e-05  -2.4790771610946139e-05  -1.7336075241353005e-05  -3.7873463879792459e-06  -9.4180744430262184e-06  2.5866493093031281e-06  1.3626309613250947e-06  1.6640067908049673e-06  1.0695474701250586e-05  -2.5926376104609654e-05  -2.9160952735132119e-05  -1.6570472868509976e-05  1.0308293573488520e-06  2.9121097964565618e-06  -4.3052114017169180e-07  -2.6477938873287370e-05  -6.2340321429249522e-06  2.9546479854812652e-05  8.8055425604435601e-07  3.1337111167635090e-05  4.2207948991475088e-05  2.3105193197925590e-05  -3.3522313768601516e-05  -2.5398323634085205e-05  1.2350640176336382e-05  -7.1549333683144320e-06  -4.6097740752507137e-06  -1.2219014284199670e-06  -5.6841886730517033e-06  5.1967870889135188e-06  -1.7750112124065140e-05  -4.4589831893572782e-05  -3.3193783241541434e-05  -8.6118145078650304e-06  4.1014302588408137e-05  -2.9648130599538699e-05  2.1086144518824995e-05  5.6444953528935063e-06  -3.0412603401656751e-05  -5.2586238217672396e-05  -5.6739970899266481e-05  -3.4080057210632037e-05  -1.0806468364392923e-05  1.7182225856729911e-05  3.3361269980787059e-06  -3.5164503044173749e-06  -1.4568426876059988e-05  -4.8193622637567291e-06  -9.3318920812811776e-06  -2.0133042118990592e-05  4.1680417860477503e-05  -2.2940855144060686e-05  1.0063642737420468e-05  -3.3570231667742095e-06  4.4359113104143151e-05  7.9605832142401611e-07  3.7459495766731945e-06  3.6821764614594846e-06  2.9844895532904676e-06  -2.1796071210809499e-05  3.4369516882864085e-06  1.0831693827072618e-05  2.3533629564558041e-05  7.6413269373391230e-06  1.5526685629215550e-06  1.3264777957905401e-08  -2.5602872308209986e-07  -3.0391153020968500e-05  6.7099507885703055e-06  2.1493615443834336e-05  2.2046966584879582e-05  -2.2249674437186386e-05  5.1715456315174647e-06  5.8659422174878043e-08  -3.5373161505301803e-07  1.3556221959894036e-05  -1.0448329559172990e-05  -1.2518874475569439e-05  3.0313473357622179e-05  3.6817847233963213e-05  1.3996744377320163e-06  2.1058660015014688e-05  -3.1713488817503761e-06  1.5669361695242054e-05  1.1653190628451772e-05  5.9140835162086773e-06  -9.1949115901279830e-07  8.5601801076871154e-06  5.5750642752040158e-06  -1.8611132036431072e-06  4.0856780369012740e-05  8.2851971603880738e-06  1.0156656591857919e-05  -1.1284655909551086e-05  -1.3930477451887556e-05  -1.0186654388484474e-05  9.0670194297636974e-06  3.4410317052364178e-05  -5.0113853704958498e-06  3.4262096068796325e-06  -4.2066795479670680e-05  -4.4789237023221621e-05  -6.1803648606769602e-05  -6.5248675387055089e-05  -2.2325274300936678e-05  -4.1201235746130612e-06  -2.1794395966049186e-06  -7.7362216937687014e-06  3.2386746590253349e-05  -1.8059343807514149e-06  -2.6670545674332973e-05  -1.0132808553596644e-05  2.8159283799551336e-06  4.2683198161244208e-06  3.4427951220408926e-05  8.2261872601439813e-06  -1.6289906544123900e-05  7.2384120742308033e-06  -4.7293745298882710e-06  -2.5970459691322314e-07  1.3422660508130910e-05  -2.2436786646977530e-07  2.4985323576132484e-05  2.3151647428267636e-05  4.2253396549661594e-05  3.1463648905514437e-07  2.8232779564277138e-05  6.7494625276139020e-06  -2.8102083160432618e-05  1.2676714797396041e-05  1.2630285745582614e-05  -2.0770886769845932e-06  -2.3410683592665710e-05  -5.0329178983815138e-06  -2.6952587850035050e-05  4.5691425940372538e-05  2.8451363313351012e-05  4.4854105793213878e-05  2.5406457357757878e-05  -4.9781573955249539e-07  1.9257377918668565e-06  -1.9036722470174750e-06  1.6141621954571319e-06  1.8599219176289704e-06  -1.3231505440897673e-06  1.5342629583840284e-06  -2.2960595473378221e-05  -1.1867137711077325e-05  3.2212873349862275e-06  -3.3460067094056827e-05  -3.3933001803603628e-05  -4.9589865893424044e-06  2.5697942435639900e-06  -1.2729773044368595e-05  -3.1369429492666181e-05  -3.1192061263638946e-05  -3.2309956220922226e-05  -2.9077251668549258e-05  -2.9274653344473433e-05  3.3402477668489969e-06  9.7685749446841440e-06  9.7062600072824770e-06  2.6068563462256024e-06  -3.3885982124359771e-06  2.4141880472683283e-07  -5.6750393434264351e-07  -2.5223519469193954e-05  -2.4999175688919151e-05  -2.8130204310569680e-05  -2.7274833490493356e-05  6.2560378166053789e-08  -2.5209100362982910e-06  -7.1581854618534214e-08  9.2954229857793351e-07  1.3418442293885953e-06  1.1880958178906720e-06  9.3990176103713501e-07  4.8334633777103477e-07  -2.3039221511586418e-05  -2.1473022080552904e-05  -1.5081185992245447e-08  5.2800723094208033e-06  5.8085550353735739e-06  -9.7219668836861396e-06  -1.2161618749840541e-05  -9.0941645236189069e-06  -1.0815876415526294e-05  -7.7684716361118967e-06  -8.9733908124212435e-06  -1.1329150382747626e-05  -5.6149758811238189e-06  -3.4191107567817018e-06  -6.3801043675337370e-06  -3.0783398091556410e-05  -3.1167916972540239e-05  -2.9256099246306759e-05  -2.9026196462563868e-05  -2.9543710336427538e-05  -2.6646738598924455e-05  -2.5720359627123912e-05  -2.2540260127202189e-05  -2.2332441636150480e-05  -2.0881174061382057e-05  -5.7652971513485363e-06  -1.5973442647161971e-05  -1.5111553973107362e-05  -1.4880789187411328e-05  -1.3901212703063836e-05  -1.2941032549879011e-05  -1.1618610254809066e-05  -9.9515288880355687e-06  -8.3967525504386121e-06  -5.9185133564241195e-06  3.1748712143534646e-06  5.9113737275574095e-06  -9.2160177771431688e-06  -2.7400112843096179e-06  -1.1783212908289383e-05  -1.7801824537506378e-05  -1.6327102199721581e-05  -4.6177485106013450e-06  -1.5166774077248003e-06  2.1395000060224462e-06  -2.8579456318288228e-06  -1.5576836069446698e-06  -1.6960466679150481e-06  -2.0269322397849162e-05  -1.8526322965023447e-05  -2.1055346009099459e-05  -2.4487095756506756e-05  -1.7514209605009726e-05  -1.2047131528923891e-05  2.7717830217493286e-06  -1.3359973960582573e-06  1.2523599063544440e-06  6.6385088111174813e-07  -8.9615624851297892e-07  -1.3609441483014244e-05  -1.6895580907742577e-05  -1.4246690618930205e-05  2.6599215259729641e-06  5.0956892231021578e-06  -1.4750018662944575e-05  -1.5321751734359468e-05  -1.0004821368385908e-05  -1.2856655971478945e-05  -6.6540119845067667e-06  -8.1649131942679120e-06  -2.2933810826479498e-06  -1.1216854414801421e-06  7.1759909258176049e-06  8.6893780485285335e-06  1.2812501739484289e-05  1.6571598212120361e-05  1.9062880199741599e-05  2.4123147118407835e-05  2.4652835499548056e-05  3.0574522297049173e-05  2.9232599742235902e-05  3.5341286562980348e-05  3.2051760930706068e-05  3.7391965960578888e-05  3.2449985739914554e-05  3.6332801888013690e-05  2.4274945923740014e-06  4.9068443017423234e-06  6.6123734232108623e-06  9.3767704098208718e-06  9.5013819700003335e-06  1.1508485068181198e-05  1.0322835447473540e-05  1.0714214004429731e-05  -7.5645223308915205e-07  -2.5785303882805531e-06  -1.0361708859003183e-05  -3.1536955827926191e-05  -1.4732746971948694e-05  -1.5163528022916271e-05  3.0549805045707704e-05  3.2277847280885944e-05  2.6114549978943864e-05  2.5908353290386004e-05  2.0595803743752308e-05  8.9211535783966056e-06  7.2956873883095167e-06  5.5862265480737886e-06  2.1714557785172713e-06  1.3469471267721294e-06  -2.2866205480619591e-05  -1.7508640051820988e-05  -1.8108258713702588e-05  3.5905294910983961e-06  -3.0290467312117709e-06  3.1044503433643808e-05  2.3359152148651894e-05  1.2091774310753206e-05  -6.4779758512339685e-06  4.0805610595166679e-05  5.9938919756198703e-06  7.7515726941882326e-06  2.6888866332191532e-05  3.6317994891306272e-05  8.3554303679926746e-06  4.8920052652382948e-06  5.1810574180909141e-07  8.5432985950908622e-06  -9.2503055597202462e-06  -8.4105263566991347e-06  -5.8441015926426282e-06  -1.0050496539506206e-05  2.1224408847149602e-05  -1.0433898541956152e-05  -1.1975289021325373e-05  -7.2899910815530505e-06  -1.0670917096901123e-05  -3.1967911508081349e-07  -3.1850146754281679e-06  1.8397562756182668e-06  1.6628737889984640e-06  -5.5665777133923365e-07  -2.4611690626967773e-05  -2.2124661459088579e-05  1.0176651130258180e-06  -4.2327634879627425e-06  -5.1436554660861674e-06  1.8556537381352633e-05  -5.3572799287998765e-06  -2.7524359570748667e-05  -1.4402299701619184e-05  -1.3253141096999181e-05  -1.2006127354352690e-05  -1.0421510641218435e-05  -8.5386732240599483e-06  -6.8961275848349704e-06  -4.7220549931907880e-06  -8.6869169894942042e-06  -5.6268519541600658e-06  -1.9145585253708891e-06  -1.4369254688815449e-06  7.3175842538208480e-07  1.0741842197332564e-06  1.9720877243313852e-06  1.6488117712734881e-06  -1.2737268976778483e-05  -1.1626512391108267e-05  -9.7572279015672891e-06  -1.3971513339666389e-05  -1.0164038188400023e-05  -4.9167443114657929e-06  -5.5505460052617361e-06  1.2682864545217276e-06  -8.9138067852897992e-06  1.8043317689358290e-06  1.9684871099019474e-06  1.0923247218800282e-06  -4.8927124137523315e-07  1.1402095812666483e-06  -1.3558203385888168e-05  -3.0897887987031297e-05  -2.2991436259394872e-05  -1.6607898610646037e-05  -2.0341814348666456e-05  -7.3944371695531611e-06  -6.4965120921474360e-06  -3.7320745384740476e-07  -1.2771016944376883e-05  -1.4303726854089829e-05  -2.0286550049725736e-05  -1.4512715410003239e-05  -8.0462272118311780e-06  -7.3557141654465009e-06  -1.0635266939544549e-05  -4.4634310337963166e-06  -2.3722751673670299e-06  -3.7088906490571539e-07  5.1713986140785236e-07  1.7105667736752655e-06  1.6438037965083348e-06  2.4363169793948831e-06  2.1760092664792626e-06  1.3325292869595643e-06  1.4187785327121111e-06  -6.5152218216290987e-07  -1.4012324728568084e-06  -3.7148137678946684e-06  -2.3430335335634644e-06  -6.3477944806655256e-06  -3.4618588424627801e-06  -7.9662140410424800e-06  -4.1055189931886780e-06  -7.1742267042464681e-06  -1.6261161505007726e-06  -9.4704088700816288e-06  5.0712805852730244e-06  9.8833438336772011e-06  6.1189392444049076e-06  -1.5068557428320825e-06  -1.0253669421150065e-05  2.7583023774316141e-05  3.5030327714139105e-05  -1.2652520135106051e-06  -3.3321475616771321e-07  -9.6349703414225398e-06  -8.9373949394369986e-07  2.3659768529497727e-06  -3.7978260651145120e-06  -1.0271614540564628e-05  -3.4085508745124513e-06  -5.5075677622927449e-06  1.5513636551328335e-06  1.9664334022589586e-05  1.5614962120611069e-05  3.2960557349613303e-05  -7.1436182682001898e-06  -2.5603151197165172e-06  -8.8288090077375957e-06  -3.6677486296300411e-06  -1.4906465593113549e-05  -1.5432148140363753e-05  4.1591022956517767e-06  1.1530126362610730e-06  -1.5137884121362140e-06  1.6556394769458672e-06  -6.8667683164139339e-06  -5.9235716290073012e-06  -4.2