<?xml version="1.0"?>
<VTKFile type="UnstructuredGrid"  version="0.1"  >
<UnstructuredGrid>
<Piece  NumberOfPoints="1242" NumberOfCells="2386">
<Points>
<DataArray  type="Float64"  NumberOfComponents="3"  format="ascii">0 0 0  0 1 0  1 1 0  1 0 0  1.1 -0.1 0  -0.1 -0.1 0  1.1 1.1 0  -0.1 1.1 0  0.5014795592120214 0.5069571165125515 0  0.6087282795897082 0.7259174334466552 0  0 0.9499999999997918 0  0 0.8999999999995836 0  0 0.8499999999996529 0  0 0.7999999999999998 0  0 0.7500000000003466 0  0 0.7000000000006934 0  0 0.6500000000010401 0  0 0.6000000000013869 0  0 0.5500000000017335 0  0 0.5000000000020587 0  0 0.4500000000018723 0  0 0.4000000000016644 0  0 0.3500000000014564 0  0 0.3000000000012483 0  0 0.2500000000010403 0  0 0.2000000000008322 0  0 0.1500000000006241 0  0 0.100000000000416 0  0 0.05000000000020799 0  0.04999999999989965 0 0  0.09999999999981467 0 0  0.1499999999997036 0 0  0.1999999999995579 0 0  0.2499999999994121 0 0  0.2999999999992664 0 0  0.3499999999991206 0 0  0.3999999999989749 0 0  0.4499999999988292 0 0  0.4999999999986943 0 0  0.5499999999988151 0 0  0.5999999999989468 0 0  0.6499999999990784 0 0  0.69999999999921 0 0  0.7499999999993417 0 0  0.7999999999994734 0 0  0.8499999999996051 0 0  0.8999999999997368 0 0  0.9499999999998684 0 0  1 0.04999999999989965 0  1 0.09999999999981467 0  1 0.1499999999997036 0  1 0.1999999999995579 0  1 0.2499999999994121 0  1 0.2999999999992664 0  1 0.3499999999991206 0  1 0.3999999999989749 0  1 0.4499999999988292 0  1 0.4999999999986943 0  1 0.5499999999988151 0  1 0.5999999999989468 0  1 0.6499999999990784 0  1 0.69999999999921 0  1 0.7499999999993417 0  1 0.7999999999994734 0  1 0.8499999999996051 0  1 0.8999999999997368 0  1 0.9499999999998684 0  0.9499999999997918 1 0  0.8999999999995836 1 0  0.8499999999996529 1 0  0.7999999999999998 1 0  0.7500000000003466 1 0  0.7000000000006934 1 0  0.6500000000010401 1 0  0.6000000000013869 1 0  0.5500000000017335 1 0  0.5000000000020587 1 0  0.4500000000018723 1 0  0.4000000000016644 1 0  0.3500000000014564 1 0  0.3000000000012483 1 0  0.2500000000010403 1 0  0.2000000000008322 1 0  0.1500000000006241 1 0  0.100000000000416 1 0  0.05000000000020799 1 0  -0.1 1.05000000000004 0  -0.1 1.000000000000079 0  -0.1 0.9500000000001624 0  -0.1 0.9000000000003032 0  -0.1 0.850000000000444 0  -0.1 0.8000000000005848 0  -0.1 0.7500000000007256 0  -0.1 0.7000000000008665 0  -0.1 0.6500000000010508 0  -0.1 0.6000000000012352 0  -0.1 0.5500000000014196 0  -0.1 0.500000000001539 0  -0.1 0.4500000000014195 0  -0.1 0.4000000000013 0  -0.1 0.3500000000011588 0  -0.1 0.3000000000010178 0  -0.1 0.2500000000008986 0  -0.1 0.2000000000007579 0  -0.1 0.1500000000006174 0  -0.1 0.1000000000005272 0  -0.1 0.05000000000040083 0  -0.1 2.671196597248127e-13 0  -0.1 -0.0499999999998666 0  -0.0500000000000906 -0.1 0  -1.730560139634463e-13 -0.1 0  0.04999999999975802 -0.1 0  0.09999999999961506 -0.1 0  0.1499999999994613 -0.1 0  0.199999999999302 -0.1 0  0.2499999999991446 -0.1 0  0.2999999999990088 -0.1 0  0.3499999999988296 -0.1 0  0.3999999999986936 -0.1 0  0.4499999999985143 -0.1 0  0.4999999999984002 -0.1 0  0.5499999999985247 -0.1 0  0.5999999999986493 -0.1 0  0.6499999999987955 -0.1 0  0.6999999999989417 -0.1 0  0.7499999999990659 -0.1 0  0.7999999999992116 -0.1 0  0.8499999999993573 -0.1 0  0.8999999999994526 -0.1 0  0.949999999999584 -0.1 0  0.9999999999997226 -0.1 0  1.049999999999861 -0.1 0  1.1 -0.0500000000000906 0  1.1 -1.730560139634463e-13 0  1.1 0.04999999999975802 0  1.1 0.09999999999961506 0  1.1 0.1499999999994613 0  1.1 0.199999999999302 0  1.1 0.2499999999991446 0  1.1 0.2999999999990088 0  1.1 0.3499999999988296 0  1.1 0.3999999999986936 0  1.1 0.4499999999985143 0  1.1 0.4999999999984002 0  1.1 0.5499999999985247 0  1.1 0.5999999999986493 0  1.1 0.6499999999987955 0  1.1 0.6999999999989417 0  1.1 0.7499999999990659 0  1.1 0.7999999999992116 0  1.1 0.8499999999993573 0  1.1 0.8999999999994526 0  1.1 0.949999999999584 0  1.1 0.9999999999997226 0  1.1 1.049999999999861 0  1.05000000000004 1.1 0  1.000000000000079 1.1 0  0.9500000000001624 1.1 0  0.9000000000003032 1.1 0  0.850000000000444 1.1 0  0.8000000000005848 1.1 0  0.7500000000007256 1.1 0  0.7000000000008665 1.1 0  0.6500000000010508 1.1 0  0.6000000000012352 1.1 0  0.5500000000014196 1.1 0  0.500000000001539 1.1 0  0.4500000000014195 1.1 0  0.4000000000013 1.1 0  0.3500000000011588 1.1 0  0.3000000000010178 1.1 0  0.2500000000008986 1.1 0  0.2000000000007579 1.1 0  0.1500000000006174 1.1 0  0.1000000000005272 1.1 0  0.05000000000040083 1.1 0  2.671196597248127e-13 1.1 0  -0.0499999999998666 1.1 0  0.6331809288568002 0.7177709748241439 0  0.6564650196124731 0.7064318737464504 0  0.6783060896932309 0.6922006616102233 0  0.6972427025881992 0.6741682466256593 0  0.7128485726315302 0.6532041967122795 0  0.7241888541418045 0.6297851484263833 0  0.7323963902995467 0.6051887485208536 0  0.7389073572602304 0.5802100322140255 0  0.7430620031744615 0.5548220462595965 0  0.7447965616296532 0.5292435045920514 0  0.7448075024238111 0.5036765433841415 0  0.7427423990810645 0.478229447304354 0  0.7381963035236954 0.4531577757407598 0  0.7318017238692734 0.428549935513166 0  0.7244629308303666 0.4042255067603945 0  0.7157150407370769 0.3802978342262985 0  0.7049666680394284 0.3571024485574572 0  0.6918880012562623 0.334984551079775 0  0.6764382498331002 0.3143182648172957 0  0.6582767464088524 0.2958942670482895 0  0.6378159636614511 0.2800224468091739 0  0.6154068020952326 0.267011681025432 0  0.5912982217178409 0.2576001552133247 0  0.5659972663255716 0.2524762356340871 0  0.5403433084371935 0.2510662362745079 0  0.5148916173207007 0.2531106811916745 0  0.4900520006550713 0.2580059766361515 0  0.4658492824525189 0.2641661849154117 0  0.4423148483782698 0.2719190270346462 0  0.4196030539571722 0.2817265259376966 0  0.3977616061498019 0.293264015842725 0  0.3770081340007362 0.3065004312388365 0  0.356918210739829 0.3206283566810794 0  0.337249648196457 0.3354007365619672 0  0.3182340538715608 0.3512018505234957 0  0.3005265533673342 0.3687135292203266 0  0.2839623667191862 0.3875056354675043 0  0.2685354436258733 0.4074471783525521 0  0.2543523511547314 0.4285290913325027 0  0.2416319941125815 0.4507126081891744 0  0.230844039414561 0.4740843181899437 0  0.2232558502767146 0.4988361995705068 0  0.2220728547614989 0.5249677153208884 0  0.2261347944395433 0.5508064895760213 0  0.236010547834714 0.5749576515635307 0  0.2494503431884465 0.5972570017944694 0  0.2656659832512002 0.6174269317148553 0  0.2835083016673186 0.6359697578704085 0  0.3027625044752849 0.6527844181283301 0  0.3228779743343133 0.668175354549606 0  0.3435282913912466 0.682666504689 0  0.3653131875015431 0.6952248991575257 0  0.3879704547954357 0.7059127402757928 0  0.4112560100789485 0.7148579297067567 0  0.4350756193196145 0.7221341563203387 0  0.4594706982279373 0.7269174028981644 0  0.4840023408423564 0.7304206876825567 0  0.5086639492321283 0.7330058599518642 0  0.5335346084473293 0.7343913340919612 0  0.5585947741623716 0.7338919750211024 0  0.5836702336351668 0.7309934126545965 0  0.2664209208148424 0.4512584714074315 0  0.3077848920413508 0.623639016666538 0  0.6573822836377953 0.6827514946139405 0  0.7151970569220253 0.5880363735900764 0  0.5722478306358516 0.7066634735741603 0  0.498376410475491 0.7082175517313628 0  0.3053132440421928 0.3956930545297649 0  0.3601978801306924 0.3471613763013136 0  0.4195684164619225 0.3072271210839115 0  0.3686098085824247 0.6670413783891849 0  0.6157593119650137 0.291672950124024 0  0.506506492488735 0.2758735499269749 0  0.6791974997240426 0.3567470004682157 0  0.7074280583980822 0.4217971887919649 0  0.4300661991195994 0.69431268837326 0  0.7245991807237497 0.5178054958060888 0  0.2601116858742051 0.5748792668186394 0  0.2435482758490296 0.5132859980979686 0  0.4617990029434871 0.2877218888959507 0  0.7194793568217398 0.4703761787180166 0  0.6995626521621418 0.6336873198649225 0  0.5538929648218498 0.2732726186365531 0  0.6134913334379878 0.7022396615773712 0  0.6528912558600021 0.3191657086648448 0  0.379552814777593 0.3325242064048359 0  0.3832152642686014 0.3590721989648949 0  0.3617315947057936 0.3739472556672534 0  0.3849228533637866 0.3871025132051588 0  0.4072232215742639 0.3703265988538 0  0.4063084211452043 0.3975015752509347 0  0.3870440267778757 0.4171101137243987 0  0.4339507671182085 0.3843681865736381 0  0.4207171811826079 0.4304999801237175 0  0.387521936239801 0.4563157057839332 0  0.4620781059077908 0.4210469674085707 0  0.4770116018906609 0.3718006913010627 0  0.5062520663087757 0.4150696899385758 0  0.522880211236461 0.3673075115808199 0  0.5508953660164291 0.4080549710716244 0  0.5690791311423897 0.3607627719672725 0  0.5984752979531042 0.3981836748543339 0  0.5807314844300927 0.4421013974839312 0  0.6312936715809708 0.4336467907902496 0  0.6106835300351205 0.4742045885838422 0  0.650176251221348 0.4663570749336646 0  0.6423990040048407 0.5074117930116443 0  0.5971412061383888 0.5154496174451942 0  0.6313168604382881 0.547672297819326 0  0.5850885882267759 0.5577983469742022 0  0.618943469011473 0.5897471568436556 0  0.5714984718705434 0.6004771337862269 0  0.6016475000974872 0.6277130479218733 0  0.5671264393567511 0.6435206644154986 0  0.536393905635433 0.6177244489839867 0  0.6357594490931293 0.6221425037542062 0  0.6028785328694979 0.3667764764510307 0  0.3619602129678208 0.4354592224178047 0  0.3535957986538587 0.4703951825471384 0  0.3864253488615557 0.4973667405065976 0  0.3487875912527053 0.5143782145364162 0  0.3837355832347132 0.5381194164828924 0  0.3512248684037925 0.5547604981518117 0  0.3790406034509854 0.5818252335728827 0  0.3216711217887868 0.5371936666841717 0  0.415378467074683 0.5615449792106174 0  0.4110099381233792 0.6064883631911681 0  0.4559247765804545 0.5812490468962859 0  0.4422163507217917 0.6245816840481105 0  0.3235185967178778 0.4543973829482033 0  0.5416074333059395 0.3417085070920807 0  0.6587420359340681
[...]
<PointData  Scalars="u"> 
<DataArray  type="Float64"  Name="u"  format="ascii">-6.6557114506602977e-18  -9.0815688559673716e-18  -2.1048103631217624e-17  -6.0769321791446873e-18  3.2100732603800066e-19  3.4847820618992866e-19  -1.0029606341462683e-19  4.8994228405648582e-19  1.4214500913574735e-01  -1.0936829143498865e-01  -7.1924892905419273e-18  5.4905825469518016e-18  -1.3467945208502558e-17  -4.5912270978196280e-18  -1.1068575162909615e-18  -5.9934630638017930e-17  -1.2573916611207325e-17  2.0584190102303381e-17  -1.2193499334796630e-18  -1.7158668084309578e-17  2.6193618197172199e-17  -2.7101408951121338e-18  4.5811224080561624e-17  -6.7027769384809873e-18  -3.2711395936184865e-17  6.0435402816881900e-18  -9.3814570594233053e-19  1.5048097231088753e-18  5.9917784174402687e-18  -2.8494933623459043e-18  -4.1272480237659195e-17  -2.1855341230449715e-17  2.2318017162166220e-17  -2.9154418728164006e-17  -2.7456999839518468e-17  -3.6406572729120851e-17  -1.1613135754359702e-16  5.9610011222973476e-18  2.0349766410375837e-17  -6.5442088589852833e-17  2.8776800358052342e-18  -5.9707238253473312e-17  -2.8106251806054314e-17  -1.0932629735003365e-17  -6.0291205687320031e-17  -6.5094326244772262e-18  -1.1490687910367098e-17  2.2780030222598047e-17  4.6984446462689197e-17  -1.0987626698286251e-16  -1.9164064205595456e-16  8.8005505258200887e-17  6.1060378655925197e-18  -8.3050416330360459e-17  -6.6026454795466833e-18  4.4552568737251392e-16  5.5322975394964997e-17  -2.1821131561201933e-16  1.6415039321715613e-16  -1.2589888006148536e-16  -5.4078075262801199e-18  -2.0138556351828665e-17  1.3644587283324167e-16  -1.0708131589567398e-16  -1.0622081382698145e-16  7.6617487465861684e-17  1.0324597585263064e-17  -7.0760289931935737e-17  -2.8138681942127807e-17  -3.2038534410133348e-17  1.1458736982636246e-16  1.5098442924516494e-16  -3.0937847733401483e-16  -2.3371511770218272e-17  -1.9179769653779147e-16  3.7888255542287341e-16  1.2624675541102236e-16  -1.9535507600294208e-16  1.9267311110769316e-16  -2.3929003909565478e-18  2.2506001763367475e-16  -1.3545450822037835e-16  -1.4071244105607006e-16  -2.1161407724339171e-16  -1.2424187693102521e-17  -1.4016436278669422e-17  -5.7327779639563408e-20  -1.2517701058742803e-18  -6.5870317758153888e-19  -1.8651073785574235e-19  -1.9422472197885244e-18  3.2757734920686986e-18  -3.2926131638953998e-18  -1.2107080907465356e-17  -1.4071898462834166e-18  2.9993290088353092e-18  4.5719425619748702e-19  -1.6119749430599423e-19  1.5153299970559223e-18  2.2615940038234653e-18  5.1011398137093227e-18  -3.2267469252135558e-18  -3.4063761694415439e-18  4.4478003215912599e-19  -8.0791933857602223e-19  1.1385884387135209e-19  3.0690068667385466e-19  -4.7054704838365358e-19  -2.6383799158386244e-19  -2.4294595242117073e-19  -4.2852538845405977e-19  -1.3649825804167618e-18  -5.4266360668287455e-18  -1.6562269170448436e-18  -5.7388953636672145e-19  -5.3266862999005072e-18  -5.1732809552021608e-18  -7.2489260300306247e-18  -1.3326087119875969e-17  -1.0381261980583435e-18  -2.8326163704430015e-19  -5.8371906027301317e-18  -3.4308582106915391e-18  -6.8270117384979997e-18  -4.0275337017794732e-18  -2.8867978932750572e-18  -6.9737547016561393e-18  -3.5959091191084268e-18  1.6081386580885555e-19  1.5602607123990164e-18  2.7601970413501246e-19  -5.8560355612048338e-19  6.4890269010691264e-20  -7.3678147498876410e-19  -3.5612813397333324e-18  -4.6031449444316581e-18  -4.7244793867957435e-18  -2.4834582027109599e-18  1.2114759644247926e-18  1.9682817127960561e-18  -1.6292177378908840e-18  -3.1202686749842726e-19  -7.0562038564503078e-20  -3.2444494990404015e-18  -4.1541404791393949e-18  -2.9565611715162418e-18  -1.8739348443265556e-18  -2.2178371824180938e-18  -2.3019556480689919e-18  4.6488743887271928e-19  5.6858456260109999e-19  -5.3653353834423002e-19  5.5707950431039184e-19  7.6797132469463926e-19  -1.7673669207869099e-19  2.1023902890667393e-19  2.1023612176491651e-19  -1.9513873376605264e-18  -3.7810443882479311e-18  -4.2079845906824955e-18  -1.5084900152732606e-18  1.8181309310587394e-18  -9.7763645335507645e-19  -3.9858020074250799e-18  -3.1693732824939582e-18  2.8823379248895345e-18  -2.9873883162123078e-18  -3.3749904125391584e-18  3.0808512141621306e-18  -1.2802084756975606e-18  -6.2103665168822272e-18  -4.7851306654839980e-18  -3.5739662968062032e-18  -3.7717025686520748e-18  -1.7043045158010835e-19  1.7653122422731613e-18  -1.0484692451819847e-19  -6.4013621093865565e-19  -1.1334204494951411e-01  -1.1644268364062965e-01  -1.1823458618580762e-01  -1.1819946229960467e-01  -1.1598370278387958e-01  -1.1163167309017138e-01  -1.0669711102338153e-01  -1.0278639172013615e-01  -9.9560172500011285e-02  -9.6979083244330577e-02  -9.6215496783390461e-02  -9.6108650856400260e-02  -9.6655439746578156e-02  -9.8122770656828784e-02  -1.0053562661056456e-01  -1.0459612477543517e-01  -1.0853612301354039e-01  -1.1179025376083740e-01  -1.1426862355774692e-01  -1.1524999190828629e-01  -1.1502681323523095e-01  -1.1380951304315684e-01  -1.1163451919430745e-01  -1.0888311863159252e-01  -1.0609212525733369e-01  -1.0363524254302386e-01  -1.0175401454856736e-01  -1.0117949383181385e-01  -1.0138220102686854e-01  -1.0174837845048358e-01  -1.0205968648169478e-01  -1.0214404477755828e-01  -1.0240216336165438e-01  -1.0306210295425983e-01  -1.0369980821749239e-01  -1.0352130043411564e-01  -1.0287800117315574e-01  -1.0228235517776867e-01  -1.0193023445535132e-01  -1.0224677956181788e-01  -1.0318668490346136e-01  -1.0452358662083677e-01  -1.0540272861591946e-01  -1.0639408081820460e-01  -1.0718045771622658e-01  -1.0766684433883804e-01  -1.0759876193779287e-01  -1.0733005745092583e-01  -1.0663422415806476e-01  -1.0569534627811406e-01  -1.0515981229282521e-01  -1.0398738010645174e-01  -1.0228018930732213e-01  -1.0062805478992629e-01  -9.9091100155970890e-02  -9.7291557303925358e-02  -9.6601494855614450e-02  -9.7351713676021717e-02  -9.9330308528335229e-02  -1.0221024309804894e-01  -1.0571757098680036e-01  -4.6504345837070929e-02  -4.2305494653937153e-02  -6.3173189353162740e-02  -4.8220743549408446e-02  -4.0950061144438193e-02  -3.3408152372358398e-02  -4.1763981902287695e-02  -3.6143825465112377e-02  -3.8465567105942650e-02  -3.5782304465602800e-02  -5.8489413212763887e-02  -4.6617484181893223e-02  -5.0074963284587271e-02  -3.9722449399872205e-02  -3.3169594635336044e-02  -4.0540814393187553e-02  -5.5858468358668825e-02  -5.7446721719485783e-02  -4.2063666268888182e-02  -3.7673079430252290e-02  -5.8905570352134215e-02  -5.2923275553629683e-02  -5.4504684299794215e-02  -5.8235447623619783e-02  -3.6428535977867146e-02  -1.1302472832720484e-03  -4.2586603336839581e-03  3.2528044500678012e-02  3.2620449980967414e-02  6.1460079173322121e-02  6.3607954356559693e-02  6.7766160271290635e-02  9.6784041530157822e-02  8.7600739204920591e-02  1.0941065625785101e-01  7.3073921118686325e-02  1.1259925156523763e-01  7.1851572677905109e-02  1.0005305499677920e-01  5.2724410769346641e-02  6.8124965179306177e-02  1.0531198048769898e-01  6.2289134873731014e-02  9.4373819830630604e-02  5.4201150636706337e-02  6.8086016294112026e-02  1.0662465742664559e-01  7.1385131528224718e-02  1.0315579217013360e-01  6.1619566619573678e-02  8.4149253699955975e-02  4.3589662057524223e-02  4.5367698567708545e-02  8.1460875190742785e-02  2.0258622254007364e-02  3.6999231965219356e-02  5.4284780920613021e-02  6.4346514498337254e-02  9.7231810583915224e-02  6.5166505254736745e-02  9.0292172561183173e-02  5.7190698547985391e-02  6.5065472046217751e-02  3.3965432779296291e-02  1.0149432698657190e-01  6.7413692145269710e-02  1.0759628212578254e-01  6.5124259587878361e-02  2.3989142050175979e-02  4.0190706168437208e-02  4.5378991693926972e-02  1.3151260899038978e-02  5.4371740297300082e-02  2.5573714233188813e-02  1.2311149618445831e-02  4.3081955614982285e-02  6.8587288942865178e-03  1.3407976906070133e-03  8.9786777195883377e-03  -1.5873588902939304e-02  -8.5451526837124515e-03  2.7997746593246841e-02  -5.4735404529337077e-03  5.0717658830788069e-03  -1.9226017645592109e-02  -2.2710931564303531e-02  8.8310457316938783e-03  7.0540140131502019e-02  1.0660038317567984e-01  2.9830587868499566e-02  1.6367120629865672e-02  -1.0680791394945989e-02  -6.0922560439329925e-03  2.2449432344839419e-02  1.0451464093914771e-02  3.2780699286457722e-02  -2.3596836948015978e-03  4.1812326544981248e-04  1.6106690169568109e-02  1.1708800708054154e-01  -2.7509419536474421e-02  5.4898216161210281e-03  3.1625385093065922e-02  4.6741661617301762e-02  5.1420890180149791e-03  7.0495978133676244e-03  2.9646184305157430e-02  -2.7997672564654625e-04  -5.9206958204895488e-03  2.0588373824708913e-03  -8.8601942881179809e-03  -1.2560691407516754e-02  2.4832896007513323e-02  5.3761348921181262e-03  2.7664671511864088e-02  5.7048194835969922e-03  2.7776410112312359e-02  -1.0743992641980771e-02  3.9906668076464216e-02  -2.9375257436932575e-02  -1.3191824856784301e-02  -2.7898044792808854e-02  -2.9754489627141444e-03  1.2578886372130610e-01  1.2946813625904519e-01  -3.6937985718350282e-02  -3.4879036992798790e-02  -4.3013012143796339e-02  1.3027196797913548e-01  -4.2870844951730339e-02  2.2877576011113700e-02  -6.5769498650788865e-03  -4.6131339954410280e-02  -3.9449153400938908e-02  -3.7355430988492686e-02  -3.8023728520286466e-02  -4.5690745647976046e-02  -4.2191476162655062e-02  5.0065343927368056e-02  -2.5645163405125640e-02  -2.6932639646788766e-02  -4.0553068065023755e-02  -6.0777960822522049e-03  -4.4474933025255327e-02  -4.6447299560882171e-02  -4.2365395743084067e-02  -2.5454676036719903e-04  -4.8958004657832933e-02  -4.0568549639742213e-02  -1.1830189490853855e-02  -3.7568095023176706e-02  -3.8358960417496590e-02  -9.0146127670225340e-03  -4.5019535126346259e-02  -5.4018387909471118e-02  -6.3824596286088404e-03  1.3316363446164528e-01  -5.4879833652650839e-02  1.1505208819369359e-01  -5.7752557602538876e-02  -4.9061563695975086e-02  -2.5105968047185477e-02  -1.3484077783049407e-02  -6.0083520889965165e-02  -5.4812359029516831e-02  -2.9255879016714992e-02  -5.9771007308802922e-02  -1.0397505292257258e-02  -6.1051127890039039e-02  4.5283993777155036e-02  1.2765095114733643e-01  1.1769242596148582e-01  -4.3955870205263760e-03  -1.2377753383139496e-02  -1.8685043130937915e-02  -6.0321530699357660e-02  -3.3003011840120042e-02  -1.7583818438982744e-02  -4.2010353731050193e-02  -3.4255953086707605e-02  -6.5107896392348194e-02  -3.3369870040515760e-02  -4.0838574045982561e-02  3.0887648260081054e-02  -4.9971350892809392e-03  -4.6695252833651592e-02  -5.4761536832707507e-02  -3.3339769138496456e-02  -4.2738658956459417e-02  -5.4623138875037398e-02  -5.3833679588445690e-02  1.5816760987995396e-02  -1.5769607475116999e-02  2.1321951384969343e-02  -6.7651337763704925e-02  -3.1791540686775768e-02  -1.1848699321863306e-02  1.3549567119260097e-01  -1.4490443765217806e-02  -1.8463610028111817e-02  -3.0963886400376485e-02  3.2647923189333544e-02  -8.7828400457288253e-03  -1.0386461264254486e-02  -1.8860305747363667e-03  1.6182966483886468e-03  -1.5394550207813209e-02  3.2834709587128225e-02  -3.3037234614618868e-02  -1.4463059616525727e-02  1.6904342147695640e-02  -2.0916046323651995e-02  7.1734281999124164e-03  3.2744301879671929e-02  8.5480276942744446e-02  1.8159549027636980e-02  -2.5865054158331430e-02  1.2123121301047153e-02  3.3496543026321338e-02  1.3463070322503268e-02  -2.0204439635127341e-02  1.3325509340674299e-01  3.6326495787223134e-02  3.1555303064931484e-02  2.9498653762301597e-02  -2.8842327460951580e-02  9.0796536253208351e-03  1.4003124434069527e-02  1.2214194671755421e-01  -3.0244021302880755e-02  -2.0705171799091579e-02  -7.2302869726723912e-03  3.2657947184725554e-02  3.1844752037712053e-02  -4.3122419193622821e-02  3.4893446402769389e-02  1.8031031815921385e-02  1.8134777796235256e-02  -7.5153178925996674e-03  -1.6884034643706539e-02  -3.4292103349661797e-02  4.4201122558688390e-02  2.4319479396980179e-02  -5.3421433726072449e-02  3.2134489601321301e-02  -6.5657960325858022e-02  -1.4144137307582436e-01  -1.4014173304745026e-01  -1.4261329360442210e-01  -1.5258361133154150e-01  -1.4877885714718153e-01  -1.4006260943843085e-01  -1.3848840858985012e-01  -1.4847759747840258e-01  -1.4201467931867248e-01  -1.4724331801011861e-01  -1.3416315528248268e-01  -1.4064894580913007e-01  -1.3678352132060159e-01  -1.4728315709956513e-01  -1.3730545855235654e-01  -5.5575229605495283e-02  -1.3703104132666194e-01  -5.2304671348680352e-02  -6.8375743706306030e-02  -1.3205972015368847e-01  -6.1303863370707472e-02  -1.3513634468700103e-01  -6.0673831317722283e-02  -5.7109473681159616e-02  -5.9169280230215462e-02  -1.4228225666139943e-01  -1.3699549412004100e-01  -6.5575356447865940e-02  -1.3377308449903211e-01  -1.3050204449635122e-01  -5.1160934302623640e-02  -1.3311467194201834e-01  -6.2553901326976136e-02  -6.3918031400332531e-02  -1.3305876880485315e-01  -6.3417436412485609e-02  -6.0124635114516253e-02  -7.3423795739761905e-02  -5.7592682511013300e-02  -6.7081365696828280e-02  -6.4667763077817977e-02  -5.6534516754421144e-02  -5.9161341632283912e-02  -6.5600904105705335e-02  -5.1034068092890718e-02  -4.5175809783349632e-02  -5.0282774422198973e-02  -5.0367405004116565e-02  -6.5351230199031676e-02  -5.4217193642252977e-02  -4.9334081965867096e-02  -5.5495578513391999e-02  -5.3964197879062245e-02  -1.3590440735545470e-01  -1.4048621827634600e-01  -1.3885793062741930e-01  -1.4170385789002837e-01  -1.4529754746102141e-01  -1.3892840829674025e-01  -1.4248913847304653e-01  -1.4956708505971214e-01  -1.3878765869492160e-01  -1.4899636680992911e-01  -1.5752604834143988e-01  -1.5922981659341204e-01  -1.6576530577493268e-01  -1.6853170856689062e-01  -1.7381998299399706e-01  -1.7518033264427166e-01  -1.7971838868765777e-01  -1.7859244577505193e-01  -1.8224087784570414e-01  -1.7710275565011521e-01  -1.7979578953303049e-01  -1.6883289552647557e-01  -1.8085316539905175e-01  -1.7843987172411069e-01  -1.7099582072385988e-01  -1.6966140650531966e-01  -1.7394020802586838e-01  -1.6644828905396677e-01  -1.5401738522284844e-01  -1.6802424736569999e-01  -1.6265748041943751e-01  -1.6276129101838882e-01  -1.6182765604186070e-01  -1.5023109096061901e-01  -1.6159677632680711e-01  -1.5896907058487506e-01  -1.5670315014283395e-01  -1.5583940460179524e-01  -1.4762000950018545e-01  -1.4626577131252355e-01  -1.5422033712825914e-01  -1.4644986949636071e-01  -1.5502028715279056e-01  -1.4842864992768356e-01  -1.5660841543481413e-01  -1.5101403272884920e-01  -1.6083130894100436e-01  -1.5491478089869540e-01  -1.6585330872487428e-01  -1.5877251338496998e-01  -1.6991527580909435e-01  -1.6158876471060135e-01  -1.7390965052007532e-01  -1.6264673730552123e-01  -1.7487691262028324e-01  -1.6101419178659235e-01  -1.7117416748580402e-01  -1.7976797765872449e-01  -1.7442867458404543e-01  -1.7930279997099516e-01  -1.7236007037131457e-01  -1.7518323492788165e-01  -1.6613000494888813e-01  -1.6863623532644015e-01  -1.6234900540997974e-01  -1.5717976302903600e-01  -1.6178576644331474e-01  -1.4177560288761459e-01  -1.4679289526351763e-01  -1.7432116757181923e-01  -1.2675836415832503e-01  -1.7913425734308308e-01  -1.6275580484902072e-01  -1.5231281431529237e-01  -1.3736544411737858e-01  -1.7308814809272793e-01  -1.3105680751368315e-01  -1.5967263351711905e-01  -1.4759864991750157e-01  -1.5267963486577399e-01  -1.5724454971489965e-01  -1.5247976159509752e-01  -1.4401003916417721e-01  -1.4785575066782361e-01  -1.2310750657570051e-01  -1.5365340481751755e-01  -1.7066216334765141e-01  -1.3274568904737627e-01  -1.3415096523956638e-01  -1.4286296330777909e-01  -1.4760785432324103e-01  -1.4812048884846354e-01  -1.3787873375431667e-01  -1.4740526441106652e-01  -1.3103786927417613e-01  -1.4540755376253431e-01  -1.5349755265982443e-01  -1.5592156447197833e-01  -1.5711176152167614e-01  -1.6346668413193846e-01  -1.5603334279080880e-01  -1.6693818177151815e-01  -1.5266181654723660e-01  -1.6591676564580826e-01  -1.7451417019599147e-01  -1.7478401894812812e-01  -1.7898637621768088e-01  -1.7953145518722968e-01  -1.6915511540977521e-01  -1.7214301655733102e-01  -1.7941646455739829e-01  -1.6887677362606682e-01  -1.7444215306237951e-01  -1.5619231895613367e-01  -1.7888483250089893e-01  -1.7405384955778766e-01  -1.6465087676070569e-01  -1.6549172522334668e-01  -1.5005979667183633e-01  -1.5352832000061484e-01  -1.6279253185566697e-01  -1.5357691601746173e-01  -1.7236000597120804e-01  -1.7365966505731781e-01  -1.4500769059526969e-01  -1.7269271558268878e-01  -1.5912780565440129e-01  -1.5864874015344183e-01  -1.5408543335427627e-01  -1.3996686846978698e-01  -1.4364719336498610e-01  -1.5213285256654713e-01  -1.4689302475688062e-01  -1.5172255818244154e-01  -1.5044229330012795e-01  -1.5270936332058593e-01  -1.5462803257622670e-01  -1.4301053674410677e-01  -1.5095425955784211e-01  -1.6121646026760617e-01  -1.5967176073077538e-01  -1.6739035691862908e-01  -1.6727672068607677e-01  -1.7366746543699313e-01  -1.7456211290347493e-01  -1.7980556090612904e-01  -1.8048144640568553e-01  -1.8460800646907177e-01  -1.8368191823243782e-01  -1.8670383360621293e-01  -1.8311641398747297e-01  -1.8474754991351003e-01  -1.7705392393582450e-01  -1.7715574722767574e-01  -1.7062470048750572e-01  -1.8038077163690713e-01  -1.7265581868395244e-01  -1.6708825330521201e-01  -1.7501303955359845e-01  -1.6189396120474520e-01  -1.5729227477887686e-01  -1.6528920598120936e-01  -1.6007422483899655e-01  -1.5003017068528279e-01  -1.5092558808788786e-01  -1.5686259919891132e-01  -1.4410885862303863e-01  -1.5533065511498736e-01  -1.3701886052892270e-01  -1.6576797604563032e-01  -1.4906288678813334e-01  -1.3794008655754764e-01  -1.4291266999903773e-01  -1.3453562572991568e-01  -1.5163644190030581e-01  -1.4733225707588948e-01  -1.1889061986017234e-01  -1.3304092352841271e-01  -1.2967205408073573e-01  -1.4872416123901111e-01  -1.3124145500561848e-01  -1.3557769437659173e-01  -1.6323431572390665e-01  -1.2429645126763748e-01  -1.3831685884389144e-01  -1.4062195422333462e-01  -1.2866480975547492e-01  -1.2785541743100765e-01  -1.4070088241454121e-01  -1.5287878202214716e-01  -1.2649766539586058e-01  -1.2955505298466771e-01  -1.1884131380896497e-01  -1.4434455858189335e-01  -1.1868628649313069e-01  -1.3829329428088871e-01  -1.6051265911316748e-01  -1.6387046082658968e-01  -1.2817781153608093e-01  -1.4963683988867624e-01  -1.4805048161576870e-01  -1.4700119407754814e-01  -9.4976914280162042e-02  -1.6186846496710286e-01  -1.1268890885807771e-01  -9.9778363961991481e-02  -1.4919696087001674e-01  -1.3602564995235042e-01  -1.3814351006852271e-01  -1.1782689176616125e-01  -1.4445919750640265e-01  -1.4215240409794061e-01  -1.0842990175849390e-01  -1.3435165490057996e-01  -1.5019122956493408e-01  -1.5237666701948221e-01  -1.4770804817216318e-01  -1.2700796625119989e-01  -1.5666467856272309e-01  -1.5425776157739532e-01  -1.4041853322129105e-01  -1.5345363801685483e-01  -9.1518725227905828e-02  -1.0645340636014795e-01  -1.5138397094442538e-01  -1.6008998095768329e-01  -1.6181566940412773e-01  -1.5675066941643290e-01  -1.5186027059576926e-01  -1.1023484765803798e-01  -1.3245637770390090e-01  -1.4823705224728445e-01  -1.5184500687096461e-01  -1.4557661698537425e-01  -1.4389286467376375e-01  -1.4174221184086117e-01  -1.3003530896525631e-01  -1.5419660139137642e-01  -1.2255424094894808e-01  -1.3963088608857976e-01  -1.5310726788843840e-01  -1.5957282875895887e-01  -1.2772927697903430e-01  -1.5455823563248836e-01  -1.6432456246816129e-01  -9.3705312727567880e-02  -9.0469222720781575e-02  -5.1052774542025073e-02  -1.4067234587129607e-01  -1.3945921782824511e-01  -1.1073175474020956e-01  -1.3973098774046083e-01  -1.5028644460115584e-01  -1.7397249464125628e-01  -1.6483690201061835e-01  -1.3379863856943025e-01  -1.4845210532356787e-01  -1.4599923685804495e-01  -1.5517973771975760e-01  -1.5289097004747570e-01  -1.6203009818345834e-01  -1.6516108307307228e-01  -1.4462893266442930e-01  -1.5162091067795055e-01  -1.0383006640823227e-01  -1.2836074423138955e