<?xml version="1.0"?>
<VTKFile type="UnstructuredGrid"  version="0.1"  >
<UnstructuredGrid>
<Piece  NumberOfPoints="1242" NumberOfCells="2386">
<Points>
<DataArray  type="Float64"  NumberOfComponents="3"  format="ascii">0 0 0  0 1 0  1 1 0  1 0 0  1.1 -0.1 0  -0.1 -0.1 0  1.1 1.1 0  -0.1 1.1 0  0.4977654574422997 0.5058573200171409 0  0.5941518528243005 0.7316529441142583 0  0 0.9499999999997918 0  0 0.8999999999995836 0  0 0.8499999999996529 0  0 0.7999999999999998 0  0 0.7500000000003466 0  0 0.7000000000006934 0  0 0.6500000000010401 0  0 0.6000000000013869 0  0 0.5500000000017335 0  0 0.5000000000020587 0  0 0.4500000000018723 0  0 0.4000000000016644 0  0 0.3500000000014564 0  0 0.3000000000012483 0  0 0.2500000000010403 0  0 0.2000000000008322 0  0 0.1500000000006241 0  0 0.100000000000416 0  0 0.05000000000020799 0  0.04999999999989965 0 0  0.09999999999981467 0 0  0.1499999999997036 0 0  0.1999999999995579 0 0  0.2499999999994121 0 0  0.2999999999992664 0 0  0.3499999999991206 0 0  0.3999999999989749 0 0  0.4499999999988292 0 0  0.4999999999986943 0 0  0.5499999999988151 0 0  0.5999999999989468 0 0  0.6499999999990784 0 0  0.69999999999921 0 0  0.7499999999993417 0 0  0.7999999999994734 0 0  0.8499999999996051 0 0  0.8999999999997368 0 0  0.9499999999998684 0 0  1 0.04999999999989965 0  1 0.09999999999981467 0  1 0.1499999999997036 0  1 0.1999999999995579 0  1 0.2499999999994121 0  1 0.2999999999992664 0  1 0.3499999999991206 0  1 0.3999999999989749 0  1 0.4499999999988292 0  1 0.4999999999986943 0  1 0.5499999999988151 0  1 0.5999999999989468 0  1 0.6499999999990784 0  1 0.69999999999921 0  1 0.7499999999993417 0  1 0.7999999999994734 0  1 0.8499999999996051 0  1 0.8999999999997368 0  1 0.9499999999998684 0  0.9499999999997918 1 0  0.8999999999995836 1 0  0.8499999999996529 1 0  0.7999999999999998 1 0  0.7500000000003466 1 0  0.7000000000006934 1 0  0.6500000000010401 1 0  0.6000000000013869 1 0  0.5500000000017335 1 0  0.5000000000020587 1 0  0.4500000000018723 1 0  0.4000000000016644 1 0  0.3500000000014564 1 0  0.3000000000012483 1 0  0.2500000000010403 1 0  0.2000000000008322 1 0  0.1500000000006241 1 0  0.100000000000416 1 0  0.05000000000020799 1 0  -0.1 1.05000000000004 0  -0.1 1.000000000000079 0  -0.1 0.9500000000001624 0  -0.1 0.9000000000003032 0  -0.1 0.850000000000444 0  -0.1 0.8000000000005848 0  -0.1 0.7500000000007256 0  -0.1 0.7000000000008665 0  -0.1 0.6500000000010508 0  -0.1 0.6000000000012352 0  -0.1 0.5500000000014196 0  -0.1 0.500000000001539 0  -0.1 0.4500000000014195 0  -0.1 0.4000000000013 0  -0.1 0.3500000000011588 0  -0.1 0.3000000000010178 0  -0.1 0.2500000000008986 0  -0.1 0.2000000000007579 0  -0.1 0.1500000000006174 0  -0.1 0.1000000000005272 0  -0.1 0.05000000000040083 0  -0.1 2.671196597248127e-13 0  -0.1 -0.0499999999998666 0  -0.0500000000000906 -0.1 0  -1.730560139634463e-13 -0.1 0  0.04999999999975802 -0.1 0  0.09999999999961506 -0.1 0  0.1499999999994613 -0.1 0  0.199999999999302 -0.1 0  0.2499999999991446 -0.1 0  0.2999999999990088 -0.1 0  0.3499999999988296 -0.1 0  0.3999999999986936 -0.1 0  0.4499999999985143 -0.1 0  0.4999999999984002 -0.1 0  0.5499999999985247 -0.1 0  0.5999999999986493 -0.1 0  0.6499999999987955 -0.1 0  0.6999999999989417 -0.1 0  0.7499999999990659 -0.1 0  0.7999999999992116 -0.1 0  0.8499999999993573 -0.1 0  0.8999999999994526 -0.1 0  0.949999999999584 -0.1 0  0.9999999999997226 -0.1 0  1.049999999999861 -0.1 0  1.1 -0.0500000000000906 0  1.1 -1.730560139634463e-13 0  1.1 0.04999999999975802 0  1.1 0.09999999999961506 0  1.1 0.1499999999994613 0  1.1 0.199999999999302 0  1.1 0.2499999999991446 0  1.1 0.2999999999990088 0  1.1 0.3499999999988296 0  1.1 0.3999999999986936 0  1.1 0.4499999999985143 0  1.1 0.4999999999984002 0  1.1 0.5499999999985247 0  1.1 0.5999999999986493 0  1.1 0.6499999999987955 0  1.1 0.6999999999989417 0  1.1 0.7499999999990659 0  1.1 0.7999999999992116 0  1.1 0.8499999999993573 0  1.1 0.8999999999994526 0  1.1 0.949999999999584 0  1.1 0.9999999999997226 0  1.1 1.049999999999861 0  1.05000000000004 1.1 0  1.000000000000079 1.1 0  0.9500000000001624 1.1 0  0.9000000000003032 1.1 0  0.850000000000444 1.1 0  0.8000000000005848 1.1 0  0.7500000000007256 1.1 0  0.7000000000008665 1.1 0  0.6500000000010508 1.1 0  0.6000000000012352 1.1 0  0.5500000000014196 1.1 0  0.500000000001539 1.1 0  0.4500000000014195 1.1 0  0.4000000000013 1.1 0  0.3500000000011588 1.1 0  0.3000000000010178 1.1 0  0.2500000000008986 1.1 0  0.2000000000007579 1.1 0  0.1500000000006174 1.1 0  0.1000000000005272 1.1 0  0.05000000000040083 1.1 0  2.671196597248127e-13 1.1 0  -0.0499999999998666 1.1 0  0.6181251419219117 0.7208576500630901 0  0.6408786138621079 0.7070047464846417 0  0.6622389670619863 0.6900472985867946 0  0.6814691575944688 0.670493052825728 0  0.697865992501532 0.6486661775794781 0  0.711586712031873 0.6254144133901473 0  0.7225068478754887 0.6010553214548431 0  0.7304890704577632 0.5760304601502688 0  0.73604614069148 0.5507755592951774 0  0.7392028361515892 0.5254738704587419 0  0.7396349322934251 0.5003395099211653 0  0.7382224247943336 0.4754783382211752 0  0.7345798917447743 0.4509652916207506 0  0.7288650322031962 0.4269873212939138 0  0.7215065947790879 0.4034169085953688 0  0.711644867680737 0.3803842714031301 0  0.6993882108731526 0.3581340138963197 0  0.6847600359452906 0.3367287500274045 0  0.6676977099345748 0.3165938510077423 0  0.6482917495980913 0.2982723002584139 0  0.6267594257060238 0.2822807153152514 0  0.603333735896221 0.2689883499716433 0  0.5785018919522561 0.258710469671769 0  0.5527524272901878 0.25150028967065 0  0.5265624823972257 0.2476574861989292 0  0.5005752843145818 0.2470005606563617 0  0.4754382939173522 0.2489741931292285 0  0.4518271648092114 0.2524334609606012 0  0.4291989685350913 0.257520816850055 0  0.4074350349752451 0.2649429189716146 0  0.3868069545247235 0.2747520522479482 0  0.3676635845185224 0.286491028192597 0  0.349691359207762 0.2995514937058986 0  0.3329125136315987 0.3143235922654396 0  0.3168858233264428 0.3305606774101035 0  0.301936712415288 0.3486050090250636 0  0.2881987991525917 0.3682842021747397 0  0.2759548525151264 0.3897369418696651 0  0.2652095822511486 0.4128349975585396 0  0.2564128108421879 0.4374847567524818 0  0.250377352075374 0.4635623765555349 0  0.2473946977892454 0.4907284249061458 0  0.2475856044654896 0.5181539733124033 0  0.2514939453622537 0.5452265477548591 0  0.2585370639188121 0.5717902763582319 0  0.2688567992302198 0.5972273259924088 0  0.2817056271281699 0.6211183114658231 0  0.2967155512923172 0.6430019527131045 0  0.3132501738932297 0.6629822394492201 0  0.3307227373135087 0.6808806991049362 0  0.3493511442504589 0.6966168269660616 0  0.3690492039940926 0.7103558594913096 0  0.3894749448382007 0.7220599657448347 0  0.4104784596556315 0.7316231236651618 0  0.4321544755269273 0.7389136685842792 0  0.4542840021985802 0.7442356902621808 0  0.4765883378895298 0.747526751642048 0  0.499208348519467 0.7487978931352703 0  0.5223382138641121 0.7480548531917621 0  0.54596135512884 0.7450072728396556 0  0.5697832566778146 0.7395381226653424 0  0.2788191555343 0.4381131220718544 0  0.3191256110789222 0.6303928805069423 0  0.6425762229652261 0.6825691258705125 0  0.705966922011667 0.5845029760754236 0  0.5600599851018748 0.7147736918895919 0  0.4907642535027329 0.7220200727108184 0  0.3087612649458197 0.3784016074542369 0  0.3556214334880256 0.3288060457926852 0  0.4092501299677997 0.2916963792468189 0  0.3727611809921751 0.6792455822113993 0  0.6048056503217591 0.2927270764286641 0  0.4932949830190556 0.2687054700846557 0  0.6725921039624134 0.3575780483504495 0  0.7034144813096702 0.4206021001641699 0  0.4283906495142926 0.708588967817213 0  0.7186820837816263 0.5147492802234717 0  0.2793834032982572 0.5736544290688581 0  0.2652284579116534 0.5059713566700925 0  0.4494431345811647 0.2760329305464866 0  0.714726174762906 0.4680532793706921 0  0.6867059910985791 0.6301188627782284 0  0.5411658975494483 0.2706837384603439 0  0.5996700025622365 0.7065866589392138 0  0.6438640648764375 0.3206591331856209 0  0.3725799317784338 0.3146192425987144 0  0.3784724519306796 0.3434682569322239 0  0.3594755770073794 0.3579876295489146 0  0.3823482716799886 0.3737200143891664 0  0.4022134614493392 0.3573325671839748 0  0.4033006577825323 0.3862369660155304 0  0.3865026077816515 0.4061474103642093 0  0.4287557912956048 0.3741060045060244 0  0.418932147933572 0.4222662659960452 0  0.389288213083747 0.4484423311855644 0  0.4577731748203915 0.4143690452047639 0  0.4696718513172726 0.3639002176737149 0  0.5002330900599556 0.4102366400549246 0  0.514543647767508 0.362236969883768 0  0.5439090341974897 0.4048933194422007 0  0.5603767112729734 0.3581664018833092 0  0.5912431373944368 0.3965290455676457 0  0.5743219759166975 0.4401306290864267 0  0.6250449877877599 0.4322953020638038 0  0.6043718021944809 0.4727372284758331 0  0.6441694246496427 0.4647910498406553 0  0.6357220834649738 0.5058748741083779 0  0.5905749012499476 0.5145938959158436 0  0.6236435344416528 0.5466755792849962 0  0.5779347840742918 0.5582227082037383 0  0.6099187479909007 0.5899122164636683 0  0.5635486779735204 0.6029427294050373 0  0.5915017839474573 0.6298684139168205 0  0.5578151394221958 0.6483260846077205 0  0.5295318505866151 0.622455498912867 0  0.6248448891973905 0.6221978761168138 0  0.5947267593068787 0.3655433083844468 0  0.3643978503626305 0.4246418277979442 0  0.3589618789985087 0.4622967808986984 0  0.3900906691583872 0.4929558850917289 0  0.3566567149504617 0.5103548214368701 0  0.3885706527991621 0.5374216128686027 0  0.3594381373299991 0.554969978603386 0  0.3842707246611097 0.5853406774431119 0  0.3331173768825706 0.5346970890566662 0  0.417495287123168 0.5635198485233786 0  0.4130406653442134 0.612552106668917 0  0.4547595079549048 0.5849607362006065 0  0.4414126521283683 0.6320988097611961 0  0.3306137562437305 0.4435107993507327 0  0.5319964571609472 0.3375654138048692 0  0.6514319429826887 0
[...]
<PointData  Scalars="u"> 
<DataArray  type="Float64"  Name="u"  format="ascii">-6.9668487600393068e-18  -9.5630798012692041e-18  -2.0555722097592812e-17  -4.3297359576133552e-18  2.0356531814563573e-19  3.4432223433076671e-19  -1.8529786646895348e-19  5.1154615978941202e-19  1.4391530549583842e-01  -1.0762795256752290e-01  -1.0192706391083337e-17  5.3733715359424452e-18  -1.0583675486569297e-17  -1.0607228168291122e-17  -6.4509116146611766e-18  -6.2838038127279966e-17  -7.9914478422120481e-18  3.5475565228113450e-17  9.0535937798440214e-18  -3.0102406758197695e-17  2.4364038519327198e-17  -8.5645645302833857e-19  3.5463458428138483e-17  7.8984503231766543e-18  -4.2612837120110754e-17  -5.8884918745126402e-18  -3.5510361871759590e-18  5.9584173869503371e-18  7.1657610381543946e-18  -7.2960164801730388e-18  -4.7941814576878259e-17  -2.5593896618331764e-17  2.2018784054318217e-17  -4.1727947802265129e-17  -3.9517485494571552e-17  -3.0184877085217960e-17  -1.1188835981431336e-16  0.0000000000000000e+00  3.0438520843813852e-17  -5.5885220050577526e-17  -4.6544252326152521e-17  -5.8876353661921804e-17  -3.2972698576667566e-17  -1.0823466513536277e-17  -5.9196064580487024e-17  -1.6443118307320458e-17  -2.2705058331964348e-17  1.7231039388658731e-17  4.3697480190478192e-17  -1.1057150431230722e-16  -1.8954552923494207e-16  9.3791597379517520e-17  0.0000000000000000e+00  -1.0216017245869384e-16  7.9630202512118533e-18  4.5492954716795450e-16  4.8180466101228460e-17  -2.2182512796914661e-16  1.3413345553543295e-16  -1.5105492927593173e-16  4.5976913971242229e-19  -1.6765601131743870e-17  1.2320195635999048e-16  -1.2400978936626187e-16  -1.0246336911416729e-16  8.3951658297946190e-17  5.1054625126518792e-18  -7.5121716053470331e-17  -2.5989733012052686e-17  -2.4323249623955828e-17  1.1428228222006059e-16  1.5186418242069759e-16  -3.1229629778105205e-16  -3.3708634398627453e-17  -1.8683681794050336e-16  3.7894445339729515e-16  1.2258269615386585e-16  -1.9953067701540276e-16  1.9193501323500099e-16  -1.4837201076978789e-17  2.3450436373632260e-16  -1.3692835391314668e-16  -1.4051246136337851e-16  -2.0857831865541362e-16  -1.4034305136209483e-17  -9.6480611686016783e-18  -2.0938157437534213e-20  -1.3768774602460303e-18  -1.0359288078194751e-18  -8.5898599028846733e-20  -1.8987609630744252e-18  2.6014494057899320e-18  -4.1029939015276906e-18  -1.2734225572557943e-17  -7.0795259144053805e-19  5.3198014469862954e-18  1.6488700010254696e-18  -1.4721797765707701e-18  1.0610623195066455e-18  2.1368118380112885e-18  4.6742893267073577e-18  -2.2810678332843877e-18  -4.1108883082906550e-18  -1.4557287814659360e-18  -1.0464480912919135e-18  6.1101574288471343e-19  5.6763272038740429e-19  -5.4306588023530315e-19  -2.7676447469459198e-19  -1.8949098865879559e-19  -5.5294821760548018e-19  -1.9941087464846201e-18  -6.3783192852482354e-18  -2.0455752804637515e-18  -1.0386502100191740e-18  -7.0778213152154502e-18  -6.6605874752245026e-18  -6.5755449686829837e-18  -1.3079506264077781e-17  -1.6725324586725423e-18  1.7097088797975188e-18  -6.0288434575369951e-18  -8.0893981914888839e-18  -8.6789444195290755e-18  -3.7848084116803485e-18  -3.1029410677141883e-18  -6.8920207146045926e-18  -4.7575953279210929e-18  -1.5386823076229653e-18  8.5452738421896209e-19  4.0171542816887849e-19  -4.9833576674675739e-19  1.7781461465588325e-19  -7.4352225135724679e-19  -3.8890373685458273e-18  -4.8287260074730473e-18  -4.2009892888808699e-18  -1.9310293041142757e-18  -3.2884747592203101e-19  2.1141998751949469e-19  -3.1904447077366771e-19  1.0835977991908376e-18  -4.9151589469554010e-19  -4.5255076515261018e-18  -8.1322188315408419e-18  -5.7310988096952145e-18  -1.4111565322055663e-18  -1.6826684503226201e-18  -4.2935284232324982e-18  -1.2273429151273300e-18  8.5380155000313531e-19  3.2748954088231468e-19  2.1336077453200826e-19  5.6067610953778549e-19  -6.5613834184270285e-20  3.3380594358435700e-19  -6.2387674891401399e-20  -2.4413978628721303e-18  -3.4350139419611362e-18  -3.3860784769973589e-18  -1.1506987258122699e-18  1.9298144860459090e-18  -1.6451252869708421e-18  -4.9314786870504215e-18  -2.9342042204678087e-18  2.9247364430082418e-18  -3.5419800957029601e-18  -3.7993307985866622e-18  2.7074201068914194e-18  -2.1140138719193384e-18  -5.7550470089586896e-18  -4.4841803099029875e-18  -3.6405897271668068e-18  -3.5303585877521872e-18  -1.1287685140395269e-19  1.9743247234357271e-18  -7.2927867089379164e-20  -7.0132640990058551e-19  -1.1085009176095451e-01  -1.1335954549584173e-01  -1.1443361723285264e-01  -1.1484515403755075e-01  -1.1373538847780923e-01  -1.1182195780597934e-01  -1.0931577776660163e-01  -1.0668628328192786e-01  -1.0454311336625313e-01  -1.0290000013326880e-01  -1.0227357574252571e-01  -1.0236810868731377e-01  -1.0323218033961451e-01  -1.0478043229129236e-01  -1.0659350807038862e-01  -1.0902438241283424e-01  -1.1087299552300289e-01  -1.1205062751000450e-01  -1.1249638184217772e-01  -1.1189200149396356e-01  -1.1027505146556926e-01  -1.0782128155116956e-01  -1.0495423309504798e-01  -1.0244345848833650e-01  -1.0024273930325041e-01  -9.8809925419843264e-02  -9.8421793337149954e-02  -9.9350096571536095e-02  -1.0113395575801537e-01  -1.0306957186969307e-01  -1.0464850196832429e-01  -1.0579514667366766e-01  -1.0659468973148939e-01  -1.0671470593109628e-01  -1.0653407842595181e-01  -1.0578635894362307e-01  -1.0453752095191812e-01  -1.0297701698776821e-01  -1.0144415764356376e-01  -1.0026914954815694e-01  -9.9303904936156567e-02  -9.8762857409853910e-02  -9.9513263199185326e-02  -1.0031509300405589e-01  -1.0226584084580653e-01  -1.0412901557303234e-01  -1.0592402116758648e-01  -1.0721735251120805e-01  -1.0810929154735159e-01  -1.0843745425567280e-01  -1.0812459819172396e-01  -1.0723830016436994e-01  -1.0588309572716589e-01  -1.0450784328766827e-01  -1.0291088116162771e-01  -1.0161485667309754e-01  -1.0096629927778185e-01  -1.0090795113146817e-01  -1.0152912887213424e-01  -1.0290130779292297e-01  -1.0508722471350054e-01  -4.3100267647473448e-02  -4.1426203511089471e-02  -5.9044692173182908e-02  -5.0032390780036899e-02  -4.1160002271207155e-02  -3.8079544612929409e-02  -4.2835491328228718e-02  -3.9834982159035637e-02  -4.1052010196337793e-02  -3.8654219009374317e-02  -5.2657923765980282e-02  -4.3055578599151316e-02  -5.0323116142787845e-02  -4.4927414427880542e-02  -3.7574588964649734e-02  -4.5323419226461596e-02  -4.8849146620038759e-02  -4.7973523590189117e-02  -4.1708437863749774e-02  -4.2937479895764248e-02  -5.6358284329905806e-02  -4.6799551841767664e-02  -5.2431261951050794e-02  -5.4928576244956596e-02  -4.0432306483516568e-02  -2.5786222581092506e-03  -5.3965690808146878e-03  3.3635559485873594e-02  3.3670070189484744e-02  6.2889231051063421e-02  6.5402989243337137e-02  6.9011989731753751e-02  9.8911880795496745e-02  9.0354290045065164e-02  1.1167207730492527e-01  7.4932652504409156e-02  1.1483398448446068e-01  7.4571400301518015e-02  1.0204667947057912e-01  5.5685982843616706e-02  6.9608961093536328e-02  1.0633426494468975e-01  6.1908289223027581e-02  9.4326172901905841e-02  5.2891981827340340e-02  6.7092780482372882e-02  1.0696949435921795e-01  7.1248705155814065e-02  1.0376423575075219e-01  6.2488523975224135e-02  8.4982143321696652e-02  4.4568523285143158e-02  4.5976103660921544e-02  8.1644274377428397e-02  2.1051691536731552e-02  3.8910096584684063e-02  5.6773893157800882e-02  6.7944754928186940e-02  1.0051625122362490e-01  7.0043782028849574e-02  9.3389956032238722e-02  6.0987417052840581e-02  6.7081688918937468e-02  3.8078627343650071e-02  1.0356350953757162e-01  6.7958384163850402e-02  1.0874261617148377e-01  6.4970100860483035e-02  2.7256701363084130e-02  4.3344409005196240e-02  4.4237336777404608e-02  1.6679833563159222e-02  5.4291511998893045e-02  2.5042000537743782e-02  1.2097306848311000e-02  4.2922101738992906e-02  5.2975584190797700e-03  3.0239737095414366e-03  1.0034447098409345e-02  -1.3371251088223162e-02  -7.0374283467983835e-03  2.8981883956377165e-02  1.5174972503571372e-04  1.0875474871836556e-02  -1.4638760685043217e-02  -1.5031208547947159e-02  1.0551828025491483e-02  7.0104784592817687e-02  1.0742581711721418e-01  2.8860403971588799e-02  1.9648422339669219e-02  -7.1818647141187568e-03  -1.5147243333866890e-03  2.0719929300343248e-02  7.4888553598940191e-03  3.2855805466420536e-02  -3.9120584333511739e-03  1.5033282784903215e-03  1.4472110514305230e-02  1.1991577650371948e-01  -1.9556713729744005e-02  1.0714733532054425e-02  3.2346686811082916e-02  4.9446067936595402e-02  8.5674360358904602e-03  4.9780388631259975e-03  3.1807466736774447e-02  -7.2999726899148387e-05  -3.6672982633396468e-03  6.9433029670944917e-04  -1.1734967570690341e-02  -1.6282477537377389e-02  2.6613651969367807e-02  7.2239346518152290e-03  2.5452805489585104e-02  2.8953434575221177e-03  2.9155454447309388e-02  -1.1456243946567777e-02  4.4145769712745857e-02  -2.3314081943646606e-02  -8.9866086330520952e-03  -2.5690319857229561e-02  -4.5190194060916239e-03  1.2779898986508845e-01  1.3119867136544944e-01  -4.2189416561488592e-02  -3.8459338134150062e-02  -4.7106911784429203e-02  1.3134658406756738e-01  -4.7030600770898975e-02  2.3040597798913775e-02  -6.1706165158029779e-03  -4.6022549367735942e-02  -4.2363947150394508e-02  -4.0867442315065672e-02  -4.3523134471509684e-02  -4.6904679263733366e-02  -4.4504900923496675e-02  4.9754425518070293e-02  -2.3598952231405682e-02  -2.5835392857783846e-02  -4.1836256210731441e-02  -6.2664320453785340e-03  -4.2493651561682000e-02  -5.0350770848739138e-02  -4.4406372012297357e-02  1.7120751301518295e-04  -4.6075728472844184e-02  -3.7446704500732279e-02  -1.5021822328797504e-02  -3.9551273158924934e-02  -4.3321008810581728e-02  -1.2899351072522219e-02  -4.8119189331872821e-02  -5.3839523856381015e-02  -8.1573931615830236e-03  1.3529946914736551e-01  -5.0045644901984924e-02  1.1598697494685124e-01  -5.4641165006695212e-02  -4.4091196241653551e-02  -2.0114016088192823e-02  -1.3794689125477457e-02  -5.5365527404861191e-02  -5.3245406338012828e-02  -2.7115292707178683e-02  -5.2931978198536643e-02  -1.1608671027604512e-02  -5.2157584963128903e-02  4.7250748603511944e-02  1.2874247500591024e-01  1.2039325570113929e-01  -7.6647783196928197e-03  -1.0887588103622180e-02  -1.5752504385912025e-02  -5.3609658068862726e-02  -2.7589961590206227e-02  -2.0291003116368930e-02  -4.4091395349940936e-02  -2.6812634220625190e-02  -6.0603792178429323e-02  -3.0383151621175941e-02  -4.5055745445876046e-02  3.1975044285457825e-02  -6.0216401768906497e-03  -3.7513900158268020e-02  -5.3763776649657688e-02  -2.7569998271246302e-02  -4.7896022142064267e-02  -4.8984657140841298e-02  -4.5903280068449528e-02  1.3028099638718016e-02  -1.6553029042405396e-02  2.4761225367148556e-02  -6.3547209048724324e-02  -2.8314282844825754e-02  -1.1685186894464230e-02  1.3776647133015446e-01  -1.4039087390561644e-02  -1.7931700943423997e-02  -2.9661709991616787e-02  3.2775178471049160e-02  -1.2565016706662690e-02  -1.4450988980458122e-02  1.2115647462626713e-03  3.9058749484498687e-03  -1.8052458336020261e-02  3.4226722661725550e-02  -2.8410926875302087e-02  -1.8329801915359469e-02  1.4921626161657296e-02  -1.6859215787632321e-02  1.1069362363722047e-02  3.5963074432837756e-02  8.5336333570759995e-02  1.9652026154719521e-02  -2.2930052268548672e-02  1.4884694201125643e-02  3.2536374200102774e-02  1.1408776766131133e-02  -2.1956845252121548e-02  1.3473142784599587e-01  3.5933206497467750e-02  2.9698916381207942e-02  2.8755261683554658e-02  -2.8018061171853705e-02  8.4159323644077376e-03  1.7901189700123984e-02  1.2458660089344015e-01  -3.0692514154434455e-02  -1.8940869540709272e-02  -2.6792315920802015e-03  3.0973276996169002e-02  3.4400562433555812e-02  -3.9520975704015422e-02  3.7645276169488824e-02  2.0692439182965587e-02  1.8783891483500782e-02  -3.4008978001865047e-03  -2.0273999926054647e-02  -2.8253906859923066e-02  4.4457506236282224e-02  2.3765713707952815e-02  -5.2359251746335350e-02  3.6356468505606858e-02  -5.5979458060126414e-02  -1.4297054421590041e-01  -1.4065795154526656e-01  -1.4432148075282006e-01  -1.5114353490745794e-01  -1.4726251168004545e-01  -1.4200893395064679e-01  -1.3933281903777731e-01  -1.4665409344319855e-01  -1.4542679164512884e-01  -1.4822331856099669e-01  -1.3593485551243553e-01  -1.4006483930427480e-01  -1.3564783017120891e-01  -1.4318376000766878e-01  -1.3670975777699942e-01  -4.5206298909079387e-02  -1.3399890676804194e-01  -4.7984555912824717e-02  -6.3235408598199525e-02  -1.3845863860293930e-01  -6.3875969710938785e-02  -1.4015769078913967e-01  -6.6187099989923115e-02  -5.9100167097925392e-02  -6.7415278445175947e-02  -1.3686295865176723e-01  -1.3181802764747375e-01  -6.7410505818931474e-02  -1.3330367498029602e-01  -1.3688183228583048e-01  -3.9071674067603632e-02  -1.3197566963459503e-01  -5.0048805292232795e-02  -5.8731328651194369e-02  -1.3394332734217348e-01  -6.8533621997262137e-02  -6.8814062912612883e-02  -8.2989368249968096e-02  -6.3742101997329131e-02  -5.8371613045658306e-02  -6.4214595773923536e-02  -6.1532532713715594e-02  -4.7721167265693178e-02  -8.0647173805036887e-02  -5.4406287924392047e-02  -4.4258968814610535e-02  -4.4105771044768413e-02  -5.2177947738188686e-02  -7.8995963280985113e-02  -5.3647752946268661e-02  -5.4526909032954728e-02  -5.9817891142897872e-02  -4.6958651451859651e-02  -1.3562246893299695e-01  -1.4281378049851484e-01  -1.4244583954252671e-01  -1.4813788194466990e-01  -1.5042222439762507e-01  -1.4693581772443692e-01  -1.5157076260507285e-01  -1.5676762107214331e-01  -1.4952266202133518e-01  -1.5726881813386986e-01  -1.6284596825453293e-01  -1.6521290492884988e-01  -1.6931141339467906e-01  -1.7244567311955666e-01  -1.7617920454528105e-01  -1.7729387495711563e-01  -1.8069217851249386e-01  -1.7901986526715274e-01  -1.8161126655520238e-01  -1.7580722388836753e-01  -1.7728026847381825e-01  -1.6869002490808926e-01  -1.7933152466693761e-01  -1.7479314505526788e-01  -1.6632086018062922e-01  -1.6352053930058333e-01  -1.6941823596271982e-01  -1.5915678102752637e-01  -1.4693178008199650e-01  -1.6283083612358795e-01  -1.5462824130596053e-01  -1.6102564030864919e-01  -1.6526430554125149e-01  -1.4963982574681411e-01  -1.5664487542900746e-01  -1.5074300654850939e-01  -1.5155252661243160e-01  -1.4779696646717216e-01  -1.3680872233101915e-01  -1.3600496176407770e-01  -1.4693551433755844e-01  -1.3742762292943786e-01  -1.4924769639518096e-01  -1.4116827201103527e-01  -1.5188942530168409e-01  -1.4574210197128118e-01  -1.5779988128162425e-01  -1.5174077689760435e-01  -1.6447849585198013e-01  -1.5767311197576081e-01  -1.7008377283524265e-01  -1.6239625661178969e-01  -1.7579024488825046e-01  -1.6517885511779240e-01  -1.7842097927254488e-01  -1.6502749615115136e-01  -1.7623751859850087e-01  -1.8419057137793871e-01  -1.8052626595768445e-01  -1.8460597565437775e-01  -1.7952799249885557e-01  -1.8146941393148128e-01  -1.7437632301470141e-01  -1.7594556072964418e-01  -1.6872338016074773e-01  -1.6627114290407258e-01  -1.6965231516572019e-01  -1.4315522160942901e-01  -1.5651000037141294e-01  -1.7519291977533807e-01  -1.1413368167082763e-01  -1.8257237431522610e-01  -1.6102955943478350e-01  -1.4242131369294439e-01  -1.3547202958907148e-01  -1.7449803105482381e-01  -1.2344271530279202e-01  -1.5723027361346142e-01  -1.5704040904952990e-01  -1.6117396908884837e-01  -1.6425807545828999e-01  -1.5987392738633177e-01  -1.5254299268016538e-01  -1.5546957574368220e-01  -1.2232486945843671e-01  -1.5032197289016561e-01  -1.7579791404506506e-01  -1.3314418953979273e-01  -1.4230147000859389e-01  -1.5025523713650824e-01  -1.5460901149912579e-01  -1.5489506377742043e-01  -1.4482052226857281e-01  -1.5389049485351064e-01  -1.3751029993940955e-01  -1.5160160951773174e-01  -1.5961969653759564e-01  -1.6181853581149480e-01  -1.6284410786040171e-01  -1.6892980088893494e-01  -1.6185987807376792e-01  -1.7232258773901726e-01  -1.5855383404096293e-01  -1.7134953097992686e-01  -1.7914795875138798e-01  -1.7946365921772817e-01  -1.8261689245555857e-01  -1.8324404744807202e-01  -1.7384051425806030e-01  -1.7592354992753256e-01  -1.8215321742178378e-01  -1.7180040602826249e-01  -1.7641071234562833e-01  -1.5985185430594825e-01  -1.8032686915932566e-01  -1.7476543128985683e-01  -1.6604815505831619e-01  -1.6567898155649882e-01  -1.5099920405342171e-01  -1.5321516065059090e-01  -1.6149293486214777e-01  -1.5176100843470322e-01  -1.7598041536191392e-01  -1.7606926256448624e-01  -1.5099761235592668e-01  -1.7260811939990117e-01  -1.6429958266449560e-01  -1.5594280071725841e-01  -1.5062266785956210e-01  -1.3726373082342985e-01  -1.3901639841207500e-01  -1.4694999425396862e-01  -1.4039563897870835e-01  -1.4531494174499579e-01  -1.4240592531083551e-01  -1.4574451294928317e-01  -1.4566401448915745e-01  -1.3287510311336198e-01  -1.3955684259597884e-01  -1.5231976728037824e-01  -1.4784466727907886e-01  -1.5788355263370060e-01  -1.5542326987043431e-01  -1.6440465931672393e-01  -1.6333634751259557e-01  -1.7116488649154668e-01  -1.7012075712992034e-01  -1.7683284281855696e-01  -1.7425812679694469e-01  -1.7965342967893486e-01  -1.7466983109773052e-01  -1.7852512017129707e-01  -1.6962443068334523e-01  -1.7173009252154964e-01  -1.6140844896706771e-01  -1.7645125611896170e-01  -1.6956240744052328e-01  -1.5434755333624725e-01  -1.6983254908816092e-01  -1.5752191593890957e-01  -1.5555511755110304e-01  -1.6464157015347869e-01  -1.5196120888030462e-01  -1.4070521877111480e-01  -1.5215985081226435e-01  -1.5857817709440314e-01  -1.4839595054591440e-01  -1.4457192123306600e-01  -1.3408202917988182e-01  -1.5916708879076719e-01  -1.5267160264521412e-01  -1.4500916048346404e-01  -1.4836415052757335e-01  -1.4367199951563395e-01  -1.5313627187334899e-01  -1.3322346602936555e-01  -1.1492222590687488e-01  -1.2482866503777093e-01  -1.1745992779398919e-01  -1.5162099813104665e-01  -1.3452729054156606e-01  -1.3981730910484003e-01  -1.6564233655855112e-01  -1.3043680508531616e-01  -1.3546878842432974e-01  -1.4935591766726219e-01  -1.1851446644763455e-01  -1.4092213844509993e-01  -1.3531222348065991e-01  -1.4776604896345022e-01  -1.1925588607941996e-01  -1.2001669517203992e-01  -1.2788399651670687e-01  -1.4620422851477913e-01  -1.2006784613850832e-01  -1.4360361602305022e-01  -1.5793485623029133e-01  -1.6502845869608435e-01  -1.1538205957290347e-01  -1.5534675825632818e-01  -1.4224941234114577e-01  -1.4143065431369017e-01  -8.1080627726145355e-02  -1.6550969354773165e-01  -1.1944937767189998e-01  -1.0585800813417182e-01  -1.5425158567856029e-01  -1.4571991777879589e-01  -1.4510487508247416e-01  -1.2789455884463638e-01  -1.5110649455794775e-01  -1.4872791346849543e-01  -1.1202445076179206e-01  -1.3411101501004916e-01  -1.5636509563402223e-01  -1.5768277636434053e-01  -1.5458592416413386e-01  -1.2186850179738173e-01  -1.5917302159432697e-01  -1.5046488763037025e-01  -1.4665508543014794e-01  -1.5470003270797444e-01  -8.2340715964667188e-02  -1.0485511809322497e-01  -1.5102015297990201e-01  -1.6043403118667032e-01  -1.6162527335158572e-01  -1.5862556457208479e-01  -1.5483859671697522e-01  -1.1640892305294773e-01  -1.3846437894418001e-01  -1.4299048746400989e-01  -1.4728041277811260e-01  -1.4044834009415341e-01  -1.4631424003381116e-01  -1.4255864477115776e-01  -1.1812283833192455e-01  -1.4182909654208070e-01  -1.0883531437208499e-01  -1.4535853807211571e-01  -1.4925237396740831e-01  -1.5691848447866838e-01  -1.3162908625641201e-01  -1.5307030648153350e-01  -1.6415162624530844e-01  -8.3239372935448128e-02  -8.9721440165590069e-02  -5.0804790591358617e-02  -1.3568144414329802e-01  -1.3859925926024205e-01  -1.2468867678948646e-01  -1.4254486220456569e-01  -1.5346109422846529e-01  -1.7469750139292203e-01  -1.6388634403804081e-01  -1.4002529997286808e-01  -1.4549544831108352e-01  -1.4435262762035198e-01  -1.5390951404570863e-01  -1.5152508732542327e-01  -1.6109083335810992e-01  -1.7108154077314638e-01  -1.4326800365611142e-01  -1.5014093765840775e-01  -1.0846582864216098e-01  -1.3360493239787061e-01