<?xml version="1.0"?>
<VTKFile type="UnstructuredGrid"  version="0.1"  >
<UnstructuredGrid>
<Piece  NumberOfPoints="1143" NumberOfCells="2188">
<Points>
<DataArray  type="Float64"  NumberOfComponents="3"  format="ascii">0 0 0  0 1 0  1 1 0  1 0 0  1.1 -0.1 0  -0.1 -0.1 0  1.1 1.1 0  -0.1 1.1 0  0.5356698477746658 0.5234129785302456 0  0.5896086486035056 0.666701274391088 0  0 0.9499999999997918 0  0 0.8999999999995836 0  0 0.8499999999996529 0  0 0.7999999999999998 0  0 0.7500000000003466 0  0 0.7000000000006934 0  0 0.6500000000010401 0  0 0.6000000000013869 0  0 0.5500000000017335 0  0 0.5000000000020587 0  0 0.4500000000018723 0  0 0.4000000000016644 0  0 0.3500000000014564 0  0 0.3000000000012483 0  0 0.2500000000010403 0  0 0.2000000000008322 0  0 0.1500000000006241 0  0 0.100000000000416 0  0 0.05000000000020799 0  0.04999999999989965 0 0  0.09999999999981467 0 0  0.1499999999997036 0 0  0.1999999999995579 0 0  0.2499999999994121 0 0  0.2999999999992664 0 0  0.3499999999991206 0 0  0.3999999999989749 0 0  0.4499999999988292 0 0  0.4999999999986943 0 0  0.5499999999988151 0 0  0.5999999999989468 0 0  0.6499999999990784 0 0  0.69999999999921 0 0  0.7499999999993417 0 0  0.7999999999994734 0 0  0.8499999999996051 0 0  0.8999999999997368 0 0  0.9499999999998684 0 0  1 0.04999999999989965 0  1 0.09999999999981467 0  1 0.1499999999997036 0  1 0.1999999999995579 0  1 0.2499999999994121 0  1 0.2999999999992664 0  1 0.3499999999991206 0  1 0.3999999999989749 0  1 0.4499999999988292 0  1 0.4999999999986943 0  1 0.5499999999988151 0  1 0.5999999999989468 0  1 0.6499999999990784 0  1 0.69999999999921 0  1 0.7499999999993417 0  1 0.7999999999994734 0  1 0.8499999999996051 0  1 0.8999999999997368 0  1 0.9499999999998684 0  0.9499999999997918 1 0  0.8999999999995836 1 0  0.8499999999996529 1 0  0.7999999999999998 1 0  0.7500000000003466 1 0  0.7000000000006934 1 0  0.6500000000010401 1 0  0.6000000000013869 1 0  0.5500000000017335 1 0  0.5000000000020587 1 0  0.4500000000018723 1 0  0.4000000000016644 1 0  0.3500000000014564 1 0  0.3000000000012483 1 0  0.2500000000010403 1 0  0.2000000000008322 1 0  0.1500000000006241 1 0  0.100000000000416 1 0  0.05000000000020799 1 0  -0.1 1.05000000000004 0  -0.1 1.000000000000079 0  -0.1 0.9500000000001624 0  -0.1 0.9000000000003032 0  -0.1 0.850000000000444 0  -0.1 0.8000000000005848 0  -0.1 0.7500000000007256 0  -0.1 0.7000000000008665 0  -0.1 0.6500000000010508 0  -0.1 0.6000000000012352 0  -0.1 0.5500000000014196 0  -0.1 0.500000000001539 0  -0.1 0.4500000000014195 0  -0.1 0.4000000000013 0  -0.1 0.3500000000011588 0  -0.1 0.3000000000010178 0  -0.1 0.2500000000008986 0  -0.1 0.2000000000007579 0  -0.1 0.1500000000006174 0  -0.1 0.1000000000005272 0  -0.1 0.05000000000040083 0  -0.1 2.671196597248127e-13 0  -0.1 -0.0499999999998666 0  -0.0500000000000906 -0.1 0  -1.730560139634463e-13 -0.1 0  0.04999999999975802 -0.1 0  0.09999999999961506 -0.1 0  0.1499999999994613 -0.1 0  0.199999999999302 -0.1 0  0.2499999999991446 -0.1 0  0.2999999999990088 -0.1 0  0.3499999999988296 -0.1 0  0.3999999999986936 -0.1 0  0.4499999999985143 -0.1 0  0.4999999999984002 -0.1 0  0.5499999999985247 -0.1 0  0.5999999999986493 -0.1 0  0.6499999999987955 -0.1 0  0.6999999999989417 -0.1 0  0.7499999999990659 -0.1 0  0.7999999999992116 -0.1 0  0.8499999999993573 -0.1 0  0.8999999999994526 -0.1 0  0.949999999999584 -0.1 0  0.9999999999997226 -0.1 0  1.049999999999861 -0.1 0  1.1 -0.0500000000000906 0  1.1 -1.730560139634463e-13 0  1.1 0.04999999999975802 0  1.1 0.09999999999961506 0  1.1 0.1499999999994613 0  1.1 0.199999999999302 0  1.1 0.2499999999991446 0  1.1 0.2999999999990088 0  1.1 0.3499999999988296 0  1.1 0.3999999999986936 0  1.1 0.4499999999985143 0  1.1 0.4999999999984002 0  1.1 0.5499999999985247 0  1.1 0.5999999999986493 0  1.1 0.6499999999987955 0  1.1 0.6999999999989417 0  1.1 0.7499999999990659 0  1.1 0.7999999999992116 0  1.1 0.8499999999993573 0  1.1 0.8999999999994526 0  1.1 0.949999999999584 0  1.1 0.9999999999997226 0  1.1 1.049999999999861 0  1.05000000000004 1.1 0  1.000000000000079 1.1 0  0.9500000000001624 1.1 0  0.9000000000003032 1.1 0  0.850000000000444 1.1 0  0.8000000000005848 1.1 0  0.7500000000007256 1.1 0  0.7000000000008665 1.1 0  0.6500000000010508 1.1 0  0.6000000000012352 1.1 0  0.5500000000014196 1.1 0  0.500000000001539 1.1 0  0.4500000000014195 1.1 0  0.4000000000013 1.1 0  0.3500000000011588 1.1 0  0.3000000000010178 1.1 0  0.2500000000008986 1.1 0  0.2000000000007579 1.1 0  0.1500000000006174 1.1 0  0.1000000000005272 1.1 0  0.05000000000040083 1.1 0  2.671196597248127e-13 1.1 0  -0.0499999999998666 1.1 0  0.6213923642409578 0.6585830114950034 0  0.6516426794174569 0.6417719868515346 0  0.6756229798296151 0.6154815547367452 0  0.6879177983018042 0.5827950654730255 0  0.6942485653353557 0.5499607342428319 0  0.6959545528448904 0.5172931417566832 0  0.6948976592764528 0.4850188471180037 0  0.6903246312916573 0.453268681513494 0  0.6827753938762499 0.4219756724374463 0  0.6726396455644991 0.3910877616548408 0  0.6589990661640479 0.3612198562383048 0  0.6405057172712929 0.3331081621677238 0  0.6151991154837609 0.3096663654179572 0  0.5840614439388815 0.293850710373991 0  0.550577399565102 0.2904284508832876 0  0.5187008307007364 0.2945321595244835 0  0.4887677320673667 0.3029404902639912 0  0.4604470012345382 0.3137710754595284 0  0.4334985698979745 0.3264475643921584 0  0.4076239595043351 0.3404851417778457 0  0.3828204165227443 0.3558609053072904 0  0.3584418954160567 0.3719269209551818 0  0.3345644998034396 0.388895290750212 0  0.3117515215146401 0.4074149114601866 0  0.2897958434927058 0.427277870550271 0  0.2688533528377838 0.4486306304367334 0  0.2494632994678946 0.4721811530452161 0  0.2331151570365005 0.4992620869102593 0  0.2336617243616184 0.5339149387240779 0  0.2512215954471938 0.562160588640382 0  0.275146844527716 0.5827746376792464 0  0.3005451469789074 0.6000679079066804 0  0.3269763521770707 0.6151176838393337 0  0.3537847890777489 0.6286006687955423 0  0.38132179377583 0.6401050785560303 0  0.409495608466823 0.6496248773285387 0  0.4381672821145927 0.6575116578327909 0  0.4674252560566035 0.663120909235731 0  0.4970233544225018 0.6673943816850361 0  0.5272633099584602 0.6699488989050377 0  0.5581000280976169 0.6701290269529763 0  0.3758932550360193 0.6041415187818286 0  0.3623847786514235 0.4075350649711345 0  0.6234026355478351 0.3624340992764115 0  0.5148914832057454 0.3272826726611081 0  0.2951643398520323 0.4630603387573676 0  0.6277087640155161 0.6208265038220825 0  0.4116813491337404 0.3726829400559061 0  0.4306499679067783 0.6228834505255496 0  0.3231351455105333 0.5799614819501988 0  0.4608704250337636 0.346784672683035 0  0.6597871955031273 0.4433221003188647 0  0.6679523716162707 0.503437870155427 0  0.6626216038035156 0.5652430792282094 0  0.2752726337670036 0.5436169464885794 0  0.5741986372640715 0.6458923218088743 0  0.4875719802704748 0.6345414860332224 0  0.5692372280340539 0.3199968088738865 0  0.2628776100928101 0.5076537267662704 0  0.3871730441869991 0.390687306776796 0  0.3908565091305878 0.4264889300943809 0  0.3657758030753616 0.4440639170282516 0  0.3936717901004207 0.4625154286131707 0  0.4202722350909838 0.4436669278917033 0  0.4220754480285496 0.4846438060316704 0  0.3687149033498225 0.4809165610885948 0  0.4541566225732621 0.4639522059613804 0  0.4519921678758573 0.5165146971804007 0  0.4169313305538673 0.5239752670560756 0  0.4480696687113693 0.4227494042479691 0  0.4825421130826563 0.4405206945030932 0  0.4552949586517065 0.5615613287518538 0  0.4225012009912754 0.5776041276098305 0  0.4767145384248839 0.4031815746965708 0  0.507690959556191 0.4176972077902678 0  0.5027159046451337 0.3833465763610294 0  0.5353194473367385 0.3957619627291044 0  0.5486252560078395 0.4345341312608075 0  0.5758966385913642 0.4080164663951529 0  0.5750784481367294 0.456770816468472 0  0.5622745685455425 0.3723222330109634 0  0.6056949939831006 0.4288765534193971 0  0.3422267338428416 0.4625746722559388 0  0.3445312179644248 0.5002089903524443 0  0.3700333176538827 0.5180555835734244 0  0.3447245004003904 0.5343171614952714 0  0.3155523618886323 0.5162859150395053 0  0.3721556617840644 0.5591412414963138 0  0.5941785774924387 0.378263746027365 0  0.4461817025341143 0.3833224213512841 0  0.5265801450543363 0.3613564850761576 0  0.3938136694039788 0.5010260837901658 0  0.3389215267790264 0.4241477493580674 0  0.3490342753778102 0.5935355959385138 0  0.4023042681618234 0.6120513435554334 0  0.4171420654223436 0.4089461833426869 0  0.4580754779821783 0.6299151499191558 0  0.478403641450136 0.6019662765750873 0  0.5074747210581219 0.6062057372489229 0  0.4971857473328422 0.5727023524295732 0  0.5286127936588765 0.5774405429509792 0  0.5755353353621903 0.5548037635508724 0  0.5605801653436679 0.5921996614317037 0  0.5790098366328076 0.5109902358110801 0  0.6081650703837956 0.5340244324365598 0  0.6059918918126465 0.5702205101605849 0  0.6171529104646922 0.4943250168457213 0  0.5168106368005532 0.6387409523066961 0  0.6352582574085914 0.5522368485385503 0  0.6315995234850952 0.5872204798401762 0  0.6047320273035841 0.6026439774406523 0  0.3162188749553356 0.4448283158008224 0  0.2983913743771923 0.5656582397932515 0  0.5506189945202306 0.3409836427354184 0  0.4940318617774481 0.3529351354395595 0  0.6400880964141752 0.5180390710536628 0  0.6650536392552846 0.4735284929988687 0  0.6357191590748195 0.4654359584320686 0  0.2760378874399898 0.4821836605807133 0  0.2872343609351165 0.5144529538950785 0  0.6513128571719693 0.4126655013187353 0  0.5482102843429824 0.6415353800498749 0  0.3957918094105585 0.5818966831093803 0  0.453236240799337 0.5948972679869621 0  0.6666925036458365 0.5342551380596007 0  0.5397643791750955 0.6114146891067533 0  0.5488940563697059 0.4781878482812424 0  0.3188063916776496 0.4822024644520067 0  0.6446344543472582 0.385815310291995 0  0.5867591610983859 0.3468453498093115 0  0.6184205212347054 0.4011879467707488 0  0.656094
[...]
<PointData  Scalars="u"> 
<DataArray  type="Float64"  Name="u"  format="ascii">-3.4129613550322646e-18  -5.0770735037646041e-18  -2.5219731462860553e-17  -3.5988586652376729e-18  1.6174136109740218e-19  2.0464864073944619e-19  1.1314771357596877e-19  3.0707096619412943e-19  -7.7478553820490764e-02  -2.4479499183445300e-01  -3.3002953906061525e-19  7.7826449237576814e-18  -4.9042322796335619e-18  1.0241292357073486e-17  -3.0103213637707690e-18  -2.5409229233678320e-17  -9.3618020699832293e-18  1.5765787096744005e-17  1.6113462101024042e-17  -8.2284158230494187e-19  7.3446680481415380e-18  2.8821079292846648e-18  5.3218608197430456e-17  1.2439308263191259e-17  -2.7595943380486896e-18  -8.4656560109439238e-18  2.5000964604207992e-19  4.7396679993213367e-18  -2.3986422586055494e-18  3.9266129909835719e-18  -3.8948226548736536e-17  -1.1884005927500944e-17  -2.9345173133414070e-18  5.9347328459984583e-18  2.0972384436554038e-17  -4.9087719412032087e-17  -8.1281994937801261e-17  2.9472561265240117e-17  -1.9884836500032367e-17  -1.3059969301402594e-17  2.0588281701830481e-17  -5.9517868875733106e-17  -2.2357338796168817e-17  -8.7397218192369492e-19  -4.1176800476008865e-17  -9.4842687740124305e-18  -5.0397815785241456e-18  6.2836167668478227e-18  3.7459987075118819e-17  -2.2672493293019627e-17  -1.2547979473935230e-16  1.2273345276727408e-16  3.0094591983148650e-17  1.6603260912768652e-17  8.7420407568942606e-18  4.5726891323730819e-16  1.4539545735665876e-16  -2.0011372340193335e-16  1.8255358698560969e-16  -2.7856815880034353e-17  -1.6977996676766703e-17  -1.1963145203977305e-17  1.5054850958277011e-16  -1.0079212809287178e-16  -1.0591861771014953e-16  7.7776265115416302e-17  1.4146132939665962e-18  -5.5355756012357169e-17  -9.6453858670587199e-18  -2.3098005205530699e-17  1.7581578248662550e-17  9.7940273381868621e-18  -1.5746259186731050e-16  -2.7285739749235960e-17  -1.8890007423690261e-16  1.7573467075146542e-16  -2.9739591784628449e-17  -1.7920537583527290e-16  1.6953607372987956e-17  6.6047241628248589e-18  1.4756574073461950e-16  -2.8270110170686876e-17  -1.8455731766804143e-17  -9.5328415518229256e-17  -1.9399263139794003e-18  -2.3222831891484570e-17  -8.1817928495894973e-20  -6.0047903637210379e-19  6.7824611022041047e-20  -9.6678099233173205e-20  -3.0750830773823151e-19  2.6398160685129821e-18  -2.6082285713690566e-18  -8.2831321198632592e-18  -1.6617144758232948e-19  2.0025153250521254e-18  2.5102888211629421e-18  1.0184789908360315e-18  1.2851239849598544e-19  2.0667160247466096e-18  6.2928679185937154e-18  -2.1570886205796095e-20  -5.0467177614187099e-19  -6.6650638334186660e-19  -1.0110085327796332e-18  3.6309495371822417e-19  -3.6610708333460560e-19  -4.3348329255931574e-19  -4.3092256273173894e-20  -3.2802799349171843e-19  3.2293850263993733e-19  -7.3341975978539069e-19  -4.2654918375318080e-18  -1.8561036371050491e-18  -2.3922425233798739e-18  -3.8361647949292907e-19  -1.2239590098026336e-19  -6.8489894952706903e-18  -9.0751073077706571e-18  1.0628909576939591e-18  -2.5063709295273644e-18  -2.3608473137689404e-18  3.3314361581211515e-19  -6.8074301730336078e-18  -3.4314002156164039e-18  -1.2585914000177833e-18  -4.0733725838474684e-18  -2.6770789811605907e-18  -2.0097904101558430e-19  3.5716521892788601e-19  -1.0213190589628271e-19  -2.2150626991365376e-19  1.6631882979205859e-20  -4.9629041046606183e-19  -1.6080285859920527e-18  -3.0075335522677012e-18  -3.6525285438798782e-18  8.4573825569745560e-19  4.0921246514969362e-18  2.3190936605972155e-18  3.7525722391529084e-20  1.0730409904303509e-18  -3.9000626444023342e-19  -1.0309434711664720e-18  -1.6237592169952899e-18  -3.7179137009844365e-18  -3.2288833229693860e-18  -1.3567610180719593e-18  -4.4414114415274627e-19  1.7497759958013016e-18  9.9384597764377664e-19  -6.8122104199020696e-19  -3.4024645953356078e-19  6.1639329144890380e-20  -1.1129482775349838e-19  -1.0108152578752900e-19  -5.8284954172995153e-20  1.8367492879244361e-19  -1.5369973786084277e-18  -2.2091345389491380e-18  1.3387013020831594e-18  2.1700809492381748e-18  -7.8405495607018455e-19  -2.8161262648278324e-18  -5.2859316142820665e-18  -9.4152578543806961e-19  -2.9758642013361074e-18  -1.1175345673356526e-18  1.5888728812831625e-18  1.2189092284919992e-18  -5.2647008651795420e-19  -3.6646376690226433e-18  -1.9450462959721429e-18  -4.5388087589993597e-19  6.3703564914057736e-19  1.3220423869039385e-18  5.2643255161260982e-20  -4.0478615143418210e-19  -2.4958176215503666e-01  -2.5151845503135373e-01  -2.4895827672764662e-01  -2.4223805135336049e-01  -2.3609968865070563e-01  -2.3133167509012506e-01  -2.2885623725920001e-01  -2.2797373637839530e-01  -2.2870580338213797e-01  -2.3091284961549505e-01  -2.3374986877106257e-01  -2.3610408743685946e-01  -2.3575668825545212e-01  -2.3356105658886897e-01  -2.2875378209193958e-01  -2.2437464819169972e-01  -2.2068324970646702e-01  -2.1834483053623993e-01  -2.1660034467203698e-01  -2.1544652630280220e-01  -2.1462053358422289e-01  -2.1433353567433999e-01  -2.1403513503087701e-01  -2.1353643103656211e-01  -2.1310189321690265e-01  -2.1290206191137315e-01  -2.1319443991307613e-01  -2.1421062352606882e-01  -2.1634938924827279e-01  -2.2014070862511331e-01  -2.2202744016925474e-01  -2.2360569735180741e-01  -2.2480349500501415e-01  -2.2579954879479128e-01  -2.2685815661269798e-01  -2.2755038867004082e-01  -2.2850890881597619e-01  -2.2982988042553298e-01  -2.3218570443903572e-01  -2.3561228695944686e-01  -2.3996834511497636e-01  -1.6300894141324093e-01  -1.5213490420698225e-01  -1.7904462767607932e-01  -1.6756112113309232e-01  -1.6547560088237109e-01  -1.9585238215922934e-01  -1.5310559223043493e-01  -1.6207460572980162e-01  -1.6974995060056722e-01  -1.5734154565408212e-01  -1.7268172824591774e-01  -1.7551251085361075e-01  -1.8702505367993189e-01  -1.7865068025685618e-01  -1.9207870198082877e-01  -1.6591811582312430e-01  -1.8370998868686519e-01  -1.7973591264417915e-01  -1.5050313991422562e-01  -1.1797560819425930e-01  -1.2288683515047073e-01  -9.5241796983704732e-02  -9.0216098864841957e-02  -7.8118233008874952e-02  -1.0497606171431390e-01  -7.1380273815030287e-02  -7.2194794380120289e-02  -8.5348922013400302e-02  -9.1292608149708715e-02  -7.5459056363777186e-02  -9.3718256390959320e-02  -1.1640609216152130e-01  -9.7776889988460347e-02  -8.6451466650216136e-02  -1.1144148237726581e-01  -1.0359584148608882e-01  -8.7378905329872150e-02  -1.1199347315145670e-01  -9.3547709981423435e-02  -1.3147382024406218e-01  -1.2453031884307258e-01  -1.3018022893071485e-01  -1.1814521822556388e-01  -1.0488399377974744e-01  -1.2583971713309652e-01  -1.4158121636858817e-01  -1.2399481938507997e-01  -1.4566903581776908e-01  -1.2557456130938607e-01  -1.3283297257476970e-01  -9.0781348989743951e-02  -1.5570183859375697e-01  -1.6656479020781201e-01  -1.5996433170918278e-01  -1.1635594893894916e-01  -1.6393723716694267e-01  -1.2918992917892799e-01  -1.3332521622463683e-01  -9.8231881474755881e-02  -1.0668694575265834e-01  -1.0895899813352238e-01  -1.3043659634406490e-01  -9.4757599983085902e-02  -1.2141213502476299e-01  -1.3898112506173949e-01  -1.2161858628821968e-01  -1.7132567810883681e-01  -1.5479502088080008e-01  -1.7248182356020228e-01  -1.6480165716021591e-01  -1.5884160958105026e-01  -1.7484712495452576e-01  -1.5787183772519772e-01  -1.4276575007762640e-01  -1.4839544467015212e-01  -1.7271113678861783e-01  -1.4280869755853967e-01  -1.7324855297090677e-01  -1.6399801659692945e-01  -1.7496247170964660e-01  -1.7958202907812809e-01  -1.3205901462401240e-01  -1.2517667374892008e-01  -1.7961766730262679e-01  -1.4397123549440569e-01  -7.7060244116243598e-02  -1.4072809544661155e-01  -1.8206847026324302e-01  -1.6713708693575891e-01  -1.4959294039069662e-01  -2.0210013596980536e-01  -7.5983950443398313e-02  -6.4557949017956057e-02  -1.6161939339070680e-01  -1.8168578014982545e-01  -1.9137130443580444e-01  -1.5128660737722582e-01  -9.8355572452792028e-02  -1.2521349348112618e-01  -1.4832601400734566e-01  -1.1532220284524154e-01  -1.5116504257516516e-01  -1.8749225378343107e-01  -1.9280781617912635e-01  -1.5534238312972526e-01  -1.4628621375904929e-01  -1.0279699821442327e-01  -9.1318592799403672e-02  -1.3719697553417359e-01  -7.3150808174237983e-02  -1.7171323807175573e-01  -1.0053658402374221e-01  -1.0270393142416481e-01  -1.9426865323312156e-01  -1.6062532364418178e-01  -1.6091144146766859e-01  -1.0513026618549211e-01  -1.0483198625641289e-01  -2.7813275435523632e-01  -2.5440610504814470e-01  -2.6010071532923651e-01  -2.6275368256867815e-01  -2.6357116658658808e-01  -2.4671357811317968e-01  -2.4128860346922093e-01  -2.4774929884111768e-01  -2.7559272502797316e-01  -2.5753872859350246e-01  -2.6678662450306223e-01  -2.6113611929287112e-01  -2.5097774178873161e-01  -3.9222953097631727e-02  -4.9110889609838934e-02  -5.3510325661698603e-02  -3.6268988103559718e-02  -8.1851246640669562e-02  -5.7530695424253923e-02  -4.1347133479486466e-02  -4.4172121748690715e-02  -7.2369709120240808e-02  -3.8691123846619206e-02  -8.4074374041811353e-02  -3.6052719501345198e-02  -6.5493650306151646e-02  -6.1564586882658860e-02  -2.5932151237228607e-01  -2.4676003287951817e-01  -7.6688554538822895e-02  -7.3223377836507175e-02  -2.6829628230374114e-01  -6.9905744613269191e-02  -5.7192005574021203e-02  -5.8233672352068021e-02  -4.8236161100279777e-02  -4.0616152895535829e-02  -3.4957177356879747e-02  -3.9788325774147461e-02  -3.6803805936961330e-02  -5.2998364437424249e-02  -4.0061280386607931e-02  -4.0370994355414067e-02  -2.5732459525339674e-01  -2.6176479731999602e-01  -2.6539739549247443e-01  -2.6499113973509031e-01  -2.6873695152452481e-01  -2.6195747305719125e-01  -2.6281443209679028e-01  -2.5964296105661189e-01  -2.5562731484858142e-01  -2.5197560853955037e-01  -2.4048828182216650e-01  -2.4587544805159306e-01  -2.3603286753676098e-01  -2.4990168551008815e-01  -2.3225377489376864e-01  -2.4902430673263196e-01  -2.2897799178238137e-01  -2.4860191542297308e-01  -2.2582772237633422e-01  -2.4769164282856321e-01  -2.2171757072679427e-01  -2.4476951916838494e-01  -2.6262801128674634e-01  -2.6032207885117326e-01  -2.7108566409518992e-01  -2.6882734916381495e-01  -2.5417995003015459e-01  -2.6154929765568991e-01  -2.4304782423961102e-01  -2.7108505190969556e-01  -2.6184204773538211e-01  -2.6771665940539724e-01  -2.5597936438718993e-01  -2.4489339440164329e-01  -2.3517188486451227e-01  -2.4532214089294574e-01  -2.1972399327202072e-01  -2.2917462981853598e-01  -2.1633973098855097e-01  -2.5960026403979319e-01  -2.2128379527143618e-01  -2.2935836290708325e-01  -2.1837078488034106e-01  -2.7167840947328120e-01  -2.6620094515312565e-01  -2.0361370901619635e-01  -2.6935291465795874e-01  -2.7241932907202154e-01  -2.7366691752503608e-01  -2.7549531448581149e-01  -2.7698826974628687e-01  -2.7598973601338744e-01  -2.7711083297357092e-01  -2.7183618428286771e-01  -2.7129441953244221e-01  -2.6117117131868217e-01  -2.6002917161351585e-01  -2.5765387631823400e-01  -2.6733277727075050e-01  -2.5026924422516023e-01  -2.6077969060383305e-01  -2.4492855073179454e-01  -2.4018510859140718e-01  -2.5228841485308018e-01  -2.4079768951512276e-01  -2.2134295447161281e-01  -2.3443657156709402e-01  -2.2744917146768903e-01  -2.4261527068506011e-01  -2.1371798230562924e-01  -2.6057546644798818e-01  -2.5434978263055907e-01  -2.3198049864331938e-01  -2.4754970851512237e-01  -2.2034372807848543e-01  -2.3981315916801316e-01  -2.6241129165000987e-01  -2.5606336133849278e-01  -2.3078578871981317e-01  -2.4931490776467233e-01  -2.6938853395255991e-01  -2.6462188875426962e-01  -2.3908335246561177e-01  -2.5511237839146739e-01  -2.7565320841336893e-01  -2.6520391339789279e-01  -2.8415820425981209e-01  -2.6900611965248294e-01  -2.8222291887603546e-01  -2.4838548418631015e-01  -2.6441420761502721e-01  -2.7492492948726971e-01  -2.5212216151626737e-01  -2.6129099941360723e-01  -2.8063243946966909e-01  -2.6744387324597263e-01  -2.8320473665029366e-01  -2.7115544498704330e-01  -2.4818526949207731e-01  -2.5395819996802677e-01  -2.7400751202202833e-01  -2.5934060850435298e-01  -2.7599029376546896e-01  -2.6396399980533397e-01  -2.7809450826888887e-01  -2.6804531181340702e-01  -2.7997615565696909e-01  -2.7165121882906773e-01  -2.8146270069700147e-01  -2.7432088520100173e-01  -2.8276106146309027e-01  -2.7573162628690012e-01  -2.8231433204925060e-01  -2.7480260954687402e-01  -2.7973443881762922e-01  -2.7045694683605709e-01  -2.7313683683004714e-01  -2.6239031831357956e-01  -2.6062058376127262e-01  -2.6072302699948330e-01  -2.4677258946342182e-01  -2.3862349498977906e-01  -2.5761658592411379e-01  -2.5335839919718361e-01  -2.3975515313850040e-01  -2.2814437766307791e-01  -2.2489379660785297e-01  -2.8993876540957714e-01  -1.9139891154768740e-01  -2.3269540017101975e-01  -2.2806903274445189e-01  -2.1868524223941602e-01  -2.0344780452128836e-01  -2.0234096849131120e-01  -1.9226249402442733e-01  -2.7210376507373590e-01  -2.8713478808275228e-01  -2.8230017733091484e-01  -2.8402381994308878e-01  -2.6963560824330507e-01  -2.5549997757731496e-01  -2.4109792463198099e-01  -2.3422499607814387e-01  -2.0798918155022900e-01  -2.1118686021539201e-01  -1.9558934844828718e-01  -2.0568066495019652e-01  -2.8315738235440024e-01  -2.7104844287552976e-01  -1.9796429954025266e-01  -2.6567648422493784e-01  -2.4729480173525842e-01  -2.2541837099286358e-01  -2.0532764902535966e-01  -2.3518680299904726e-01  -2.1506658618117661e-01  -2.2752660491026847e-01  -2.0940460113615972e-01  -2.1757099442038394e-01  -2.0142376200676448e-01  -2.1631417949577508e-01  -2.3528566770993586e-01  -1.5906360684510926e-01  -1.8088313368969350e-01  -1.8391203261264374e-01  -2.5958731233227300e-01  -1.9947695419150074e-01  -1.9489241489749798e-01  -2.0397369009703828e-01  -1.5370426565869300e-01  -2.3355842747992736e-01  -2.3478985995363999e-01  -1.5538850825780781e-01  -2.6787311091569860e-01  -2.3868168368837889e-01  -2.6953828100543914e-01  -2.7197159983877411e-01  -1.8832802140623256e-01  -1.7003987536420326e-01  -1.5729756319794172e-01  -1.7043699342121468e-01  -2.3695365072197108e-01  -2.4299902255609979e-01  -1.6144073974308779e-01  -1.9402848651975316e-01  -2.8883870989483618e-01  -2.9032711534930056e-01  -1.7546261249182130e-01  -1.8877804724071634e-01  -1.5878237023510297e-01  -1.8331011489020568e-01  -2.6711425590238735e-01  -2.6517696669427382e-01  -2.7640625862739254e-01  -2.3881608753379163e-01  -2.7136014988652757e-02  -1.8498064180417825e-01  -2.9248179466801016e-01  -2.6854188819768748e-01  -2.1338108610011008e-01  -1.8131533988545681e-01  -1.5155779995394908e-01  -2.6522892626893529e-01  -2.5920329676161835e-01  -1.9484375670063214e-01  -2.0318497946949041e-01  -2.3496963895417913e-01  -2.8920498315326759e-01  -2.6741345334651295e-01  -2.6857237078666912e-01  -2.0754375431716379e-01  -1.6435183478407453e-01  -2.0372592250932370e-01  -1.5814052732664974e-01  -1.9666587526312357e-01  -1.8145242626362046e-01  -1.7451528014251091e-01  -2.5713601889112070e-01  -1.3937321496223598e-01  -1.5785762864684721e-01  -2.7557832571205793e-01  -2.8148025334869153e-01  -2.7881937896239406e-01  -1.9350467014985095e-01  -1.5974372654692884e-01  -1.2419386489921058e-01  -1.9345182888733686e-01  -1.4260478381408792e-01  -2.8629573517687751e-01  -2.1761346039348198e-01  -1.8483618797984633e-01  -1.8022802868445256e-01  -1.9032038941937041e-01  -1.6373851208746995e-01  -1.4075833633240931e-01  -1.8224486793915667e-01  -2.2961513088956612e-01  -2.1502488635927719e-01  -1.9541686187987667e-01  -1.7758088752903478e-01  -1.9461729654900184e-01  -1.5567149740719660e-01  -1.6636069024391656e-01  -1.2585042937252899e-01  -1.8270190896961022e-01  -1.3457055543237501e-01  -1.6964904108100667e-01  -1.4892153157490065e-01  -2.8435293630266312e-01  -2.8149713359897555e-01  -2.7625650825355597e-01  -2.7796869149203773e-01  -2.6677940025792157e-01  -2.7980008167587050e-01  -1.2193879188484190e-01  -2.3236405140263977e-01  -1.3967539931372222e-01  -1.5109595779315244e-01  -1.0781334493560771e-01  -1.0860740726576149e-01  -4.2149710605752233e-02  -3.8284525377837303e-02  -3.0852995473593579e-02  -1.1513761872996099e-01  -1.3816290814429003e-01  -1.2433452178817386e-01  -1.1484040372296067e-01  -1.4720099874890799e-01  -1.5120269640872414e-01  -1.2858036723173136e-01  -1.3921936053834205e-01  -9.4309253501897894e-02  -2.5544124131376700e-01  -2.6193884873887219e-01  -2.4996349188555472e-01  -1.6298727187239437e-01  -1.6864375970464779e-01  -2.6390724702548318e-01  -1.4877390807056601e-01  -1.8747688842375326e-01  -1.3575390435171969e-01  -1.7761874833556021e-01  -1.2052186824537510e-01  -1.6673745152112732e-01  -2.0164089839908708e-01  -1.6117238908813314e-01  -2.8746753265094166e-01  -2.4050514378882748e-01  -2.2672578972064256e-01  -1.9550856917867096e-01  -1.8029222070117912e-01  -1.5159330991974601e-01  -1.3453442226591061e-01  -2.6374134074353439e-01  -2.7369864259145421e-01  -2.4527874328378768e-01  -2.5261799899953030e-01  -2.3904118489847279e-01  -2.8534012731381425e-01  -2.6757805102335935e-01  -2.6795520911649867e-01  -2.6209451741959550e-01  -2.6842835520972547e-01  -2.6346326693845062e-01  -2.6888402450845866e-01  -2.5964026376115107e-01  -2.6133235068265603e-01  -2.5571628329162588e-01  -1.4301086887557460e-01  -8.7526649816444063e-02  -2.5377845989618758e-01  -2.5540588725196961e-01  -2.5468063968103610e-01  -2.5900774383600322e-01  -2.5966671114906809e-01  -1.2473676367498518e-01  -2.2719343083625285e-01  -2.2921417317598944e-01  -2.6474324213931971e-01  -2.6915505530122985e-01  -1.2833802094071270e-01  -2.6925514225814479e-01  -1.6320636681366574e-01  -2.8562800060277138e-01  -2.4026884015526132e-01  -2.5523158582006122e-01  -2.8642327705280851e-01  -2.8158578550150098e-01  -7.5366997920796014e-02  -2.0701202812347147e-01  -2.3557117565872870e-01  -2.4828643588256741e-01  -1.0386218276675971e-01  -7.7361224938760298e-02  -4.5347789044650463e-02  -2.5178518673098405e-01  -2.5890849454237924e-01  -2.5934789505538730e-01  -2.6650960796285350e-01  -2.6620427539988117e-01  -2.7353084623412183e-01  -2.7235852120915471e-01  -2.6198522237329885e-01  -2.6866203822679185e-01  -2.5961264051420885e-01  -2.6628848252641979e-01  -2.7057218954435713e-01  -2.5381792171385481e-01  -2.4290741628701573e-01  -2.5194474137072181e-01  -2.3860475954983129e-01  -2.6186649703380532e-01  -2.6514524296696051e-01  -2.7168864445285684e-01  -2.8088153327179366e-01  -2.6230248706073855e-01  -2.9165578193796687e-01  -2.9118489310040246e-01  -1.8523765986846982e-01  -2.5825328010621668e-01  -2.8272246582855409e-01  -2.8263687968061174e-01  -2.8086587156542031e-01  -2.7660683967525312e-01  -2.7438373619934897e-01  -2.7892552282819516e-01  -2.7227406959531697e-01  -2.6898812369146735e-01  -2.7715626592082365e-01  -2.7003729918056224e-01  -2.7603771710403308e-01  -2.6679849453647375e-01  -2.7497780417973589e-01  -2.8036901159504507e-01  -2.8093504301661232e-01  -2.6213981065794850e-01  -2.6688523806136877e-01  -2.1278733400909330e-01  -2.4943068708136779e-01  -8.5065131098032765e-02  -7.1498720366881777e-02  -2.7966299208720918e-01  -1.0706584401142157e-01  -7.7420294927049910e-02  -2.5199412426616602e-01  -2.5885275607796365e-01  -2.8418726884081968e-01  -7.2470753785871131e-02  -2.6786620137791201e-01  -1.0347322718842576e-01  -6.7262132225096749e-02  -4.5250799338280870e-02  -5.9242561685443611e-02  -1.2635333403923329e-01  -7.5318971372624333e-02  -4.1138595842306953e-02  -1.1550002324672443e-01  -1.0929104105899876e-01  -8.1245814887030268e-02  -1.2727572782955840e-01  -2.6324194132194206e-01  -4.0840625863281174e-02  -4.5177386020324783e-02  -2.6004901047650947e-01  -2.5123349707905629e-01  -2.1400574675293774e-01  -8.1087289616343511e-02  -3.9949393611167561e-02  -7.8039846099386995e-02  -8.6700198418599550e-02  -2.7210437027551959e-01  -1.5460927008576228e-01  -6.7467130637472200e-02  -6.6915421383415455e-02  -7.4017129987060629e-02  -1.4182988432271876e-01  -1.3672979418856357e-01  -7.4418207940287709e-02  -1.4353379646774977e-01  -2.8286151698