<?xml version="1.0"?>
<VTKFile type="UnstructuredGrid"  version="0.1"  >
<UnstructuredGrid>
<Piece  NumberOfPoints="1078" NumberOfCells="2058">
<Points>
<DataArray  type="Float64"  NumberOfComponents="3"  format="ascii">0 0 0  0 1 0  1 1 0  1 0 0  1.1 -0.1 0  -0.1 -0.1 0  1.1 1.1 0  -0.1 1.1 0  0.5404834758657044 0.5939573339782118 0  0 0.9499999999997918 0  0 0.8999999999995836 0  0 0.8499999999996529 0  0 0.7999999999999998 0  0 0.7500000000003466 0  0 0.7000000000006934 0  0 0.6500000000010401 0  0 0.6000000000013869 0  0 0.5500000000017335 0  0 0.5000000000020587 0  0 0.4500000000018723 0  0 0.4000000000016644 0  0 0.3500000000014564 0  0 0.3000000000012483 0  0 0.2500000000010403 0  0 0.2000000000008322 0  0 0.1500000000006241 0  0 0.100000000000416 0  0 0.05000000000020799 0  0.04999999999989965 0 0  0.09999999999981467 0 0  0.1499999999997036 0 0  0.1999999999995579 0 0  0.2499999999994121 0 0  0.2999999999992664 0 0  0.3499999999991206 0 0  0.3999999999989749 0 0  0.4499999999988292 0 0  0.4999999999986943 0 0  0.5499999999988151 0 0  0.5999999999989468 0 0  0.6499999999990784 0 0  0.69999999999921 0 0  0.7499999999993417 0 0  0.7999999999994734 0 0  0.8499999999996051 0 0  0.8999999999997368 0 0  0.9499999999998684 0 0  1 0.04999999999989965 0  1 0.09999999999981467 0  1 0.1499999999997036 0  1 0.1999999999995579 0  1 0.2499999999994121 0  1 0.2999999999992664 0  1 0.3499999999991206 0  1 0.3999999999989749 0  1 0.4499999999988292 0  1 0.4999999999986943 0  1 0.5499999999988151 0  1 0.5999999999989468 0  1 0.6499999999990784 0  1 0.69999999999921 0  1 0.7499999999993417 0  1 0.7999999999994734 0  1 0.8499999999996051 0  1 0.8999999999997368 0  1 0.9499999999998684 0  0.9499999999997918 1 0  0.8999999999995836 1 0  0.8499999999996529 1 0  0.7999999999999998 1 0  0.7500000000003466 1 0  0.7000000000006934 1 0  0.6500000000010401 1 0  0.6000000000013869 1 0  0.5500000000017335 1 0  0.5000000000020587 1 0  0.4500000000018723 1 0  0.4000000000016644 1 0  0.3500000000014564 1 0  0.3000000000012483 1 0  0.2500000000010403 1 0  0.2000000000008322 1 0  0.1500000000006241 1 0  0.100000000000416 1 0  0.05000000000020799 1 0  -0.1 1.05000000000004 0  -0.1 1.000000000000079 0  -0.1 0.9500000000001624 0  -0.1 0.9000000000003032 0  -0.1 0.850000000000444 0  -0.1 0.8000000000005848 0  -0.1 0.7500000000007256 0  -0.1 0.7000000000008665 0  -0.1 0.6500000000010508 0  -0.1 0.6000000000012352 0  -0.1 0.5500000000014196 0  -0.1 0.500000000001539 0  -0.1 0.4500000000014195 0  -0.1 0.4000000000013 0  -0.1 0.3500000000011588 0  -0.1 0.3000000000010178 0  -0.1 0.2500000000008986 0  -0.1 0.2000000000007579 0  -0.1 0.1500000000006174 0  -0.1 0.1000000000005272 0  -0.1 0.05000000000040083 0  -0.1 2.671196597248127e-13 0  -0.1 -0.0499999999998666 0  -0.0500000000000906 -0.1 0  -1.730560139634463e-13 -0.1 0  0.04999999999975802 -0.1 0  0.09999999999961506 -0.1 0  0.1499999999994613 -0.1 0  0.199999999999302 -0.1 0  0.2499999999991446 -0.1 0  0.2999999999990088 -0.1 0  0.3499999999988296 -0.1 0  0.3999999999986936 -0.1 0  0.4499999999985143 -0.1 0  0.4999999999984002 -0.1 0  0.5499999999985247 -0.1 0  0.5999999999986493 -0.1 0  0.6499999999987955 -0.1 0  0.6999999999989417 -0.1 0  0.7499999999990659 -0.1 0  0.7999999999992116 -0.1 0  0.8499999999993573 -0.1 0  0.8999999999994526 -0.1 0  0.949999999999584 -0.1 0  0.9999999999997226 -0.1 0  1.049999999999861 -0.1 0  1.1 -0.0500000000000906 0  1.1 -1.730560139634463e-13 0  1.1 0.04999999999975802 0  1.1 0.09999999999961506 0  1.1 0.1499999999994613 0  1.1 0.199999999999302 0  1.1 0.2499999999991446 0  1.1 0.2999999999990088 0  1.1 0.3499999999988296 0  1.1 0.3999999999986936 0  1.1 0.4499999999985143 0  1.1 0.4999999999984002 0  1.1 0.5499999999985247 0  1.1 0.5999999999986493 0  1.1 0.6499999999987955 0  1.1 0.6999999999989417 0  1.1 0.7499999999990659 0  1.1 0.7999999999992116 0  1.1 0.8499999999993573 0  1.1 0.8999999999994526 0  1.1 0.949999999999584 0  1.1 0.9999999999997226 0  1.1 1.049999999999861 0  1.05000000000004 1.1 0  1.000000000000079 1.1 0  0.9500000000001624 1.1 0  0.9000000000003032 1.1 0  0.850000000000444 1.1 0  0.8000000000005848 1.1 0  0.7500000000007256 1.1 0  0.7000000000008665 1.1 0  0.6500000000010508 1.1 0  0.6000000000012352 1.1 0  0.5500000000014196 1.1 0  0.500000000001539 1.1 0  0.4500000000014195 1.1 0  0.4000000000013 1.1 0  0.3500000000011588 1.1 0  0.3000000000010178 1.1 0  0.2500000000008986 1.1 0  0.2000000000007579 1.1 0  0.1500000000006174 1.1 0  0.1000000000005272 1.1 0  0.05000000000040083 1.1 0  2.671196597248127e-13 1.1 0  -0.0499999999998666 1.1 0  0.5717531851973607 0.5881453148172486 0  0.5990626675494776 0.5686836720709224 0  0.6091812008343143 0.5368084212513945 0  0.6110259276872059 0.5049863639904074 0  0.6099357485672817 0.4735877947997766 0  0.6059072612535762 0.4424930303289894 0  0.5986680771351065 0.4116080536579897 0  0.5874960560596805 0.3811741035864152 0  0.5700842432020391 0.3527224388416327 0  0.5429979644610757 0.3330180220327489 0  0.5117944355955711 0.3321166797728164 0  0.4830409214252683 0.3398508805711538 0  0.4561059449736977 0.3504089736452084 0  0.4301959060823226 0.3625597554885398 0  0.4050601715817522 0.3757281749798351 0  0.380537306613201 0.3896625212875909 0  0.3564878623680245 0.404203855417074 0  0.332981699478172 0.4194146524875606 0  0.3100232915429522 0.4353565608104591 0  0.2877268854050544 0.4521593069319979 0  0.2666331177265249 0.4704121158471251 0  0.2489129123606486 0.4922044323230413 0  0.2542791347343145 0.5189683307711452 0  0.2802595199851591 0.5366282285005938 0  0.3079914420632034 0.5496509709160656 0  0.3361252214448593 0.5604116211383999 0  0.3644847046547808 0.5695888600575999 0  0.3930322612016865 0.5774144766444644 0  0.4217885650237279 0.5839160692952636 0  0.4508313227984731 0.5890500277149506 0  0.480188803004823 0.5927264092487335 0  0.5100059914213311 0.5946245023387126 0  0.58052481952987 0.4606422451007206 0  0.4313885999820049 0.3960563193183174 0  0.4723088001939594 0.5604368741164623 0  0.3591942705042658 0.4360255545980628 0  0.4093625616614737 0.5525580223390276 0  0.4838327086943954 0.3737005552981107 0  0.5277184177810583 0.5644208043616999 0  0.3537183759444724 0.5376893654140285 0  0.5665420907498406 0.4019107391118505 0  0.3148928456313336 0.4676722022371113 0  0.5811388703896843 0.5210958251678161 0  0.5360451458830239 0.3583219772461364 0  0.3001666355800765 0.5168536130509236 0  0.2742398742418019 0.5030365626596276 0  0.5770554152539747 0.5530126184699425 0  0.5484829516641618 0.5378912185682599 0  0.5562075549818324 0.5034436887616741 0  0.5270495416414125 0.5149092235448456 0  0.5315009287462246 0.4834317912880099 0  0.5029338516817619 0.4939049765148961 0  0.5073440283004109 0.4615129078248679 0  0.4787718281914545 0.4720645268761298 0  0.4824824629416382 0.4397094329424002 0  0.4543690568410912 0.4498714953909271 0  0.4506098939929963 0.4824254343331016 0  0.426599986020526 0.4597885811736248 0  0.5110291106793793 0.4293565756424385 0  0.423132615512438 0.4920450934084848 0  0.4004309409899346 0.4696508323339957 0  0.3972643702080937 0.5003559460798791 0  0.4460319100145079 0.5152631706705565 0  0.4045063104417051 0.4382640075002155 0  0.374756879293718 0.4789594419224547 0  0.4954136223460331 0.529121397047295 0  0.4846760260924445 0.4074544983299295 0  0.5106731939312114 0.3970621971799547 0  0.5347139072241764 0.4527836495621805 0  0.4743725952637405 0.5047678822763625 0  0.5426567755929953 0.4217985815729283 0  0.4570264735696304 0.4178542963659479 0  0.4301291133247015 0.4280838645502771 0  0.4412939367835572 0.5509252773186081 0  0.3814306839926397 0.5460105039779408 0  0.5008002223594781 0.5636272357833537 0  0.3361169400013671 0.4505533551834528 0  0.3448876735714599 0.48257989513246 0  0.4572957453637566 0.3847083972026112 0  0.3706123729603687 0.5122298361189154 0  0.3267739456114621 0.529178431242642 0  0.2939442665045799 0.4847606155609197 0  0.4054663642473931 0.4076492787113318 0  0.5757346063905296 0.4309830410185868 0  0.5828761956558862 0.4900678453346178 0  0.4203729241501835 0.5228415281816785 0  0.3190953763446838 0.498699666019709 0  0.5598956426834634 0.3773555716591376 0  0.3815331254886205 0.4206974241141008 0  0.5107660325807277 0.3656695182715807 0  0.4673211975811521 0.5320059570566642 0  0.5384235948268192 0.3896994522368565 0  0.5577325469972766 0.4739062454263032 0  0.3430899111386617 0.5121122052306749 0  0.3804838569311235 0.4499395980035715 0  0.5190135019357123 0.5409049210159779 0  0.5524571675697734 0.5678375776426194 0  0.3958711661237942 0.5268333939927546 0  0.5583428689527662 0.4480494003788903 0  0.3569360792001645 0.460030510986837 0  0.6078623764504515 0.3905383422872862 0  0.6279132245459362 0.488844689269858 0  0.3737439666869804 0.5903482568978796 0  0.5544721406356402 0.6080728033905691 0  0.9914622968654825 0.7108521560172241 0  0.6527220503634936 0.9930316375575711 0  0.4613533774317192 0.6090482843368292 0  0.9969840003924345 0.5454808396863287 0  0.9850947110437283 0.2805174699410615 0  0.2918760003704618 0.9803014617725014 0  0.3574695465548858 0.3787631090577754 0  0.4330263233134271 0.337006522738713 0  0.4488558187634232 0.9901529269773289 0  0.2885865906396415 0.5587894457867486 0  0.06836479116559331 0.7559731977543073 0  0.7102495428594664 0.05576760298674863 0  0.2851229402737325 0.4260961443285764 0  0.6207670882744337 0.5543922609129753 0  0.8092765305593455 0.9919391817259247 0  0.2510255643348623 0.06136581363276445 0  0.07253599421841786 0.2508766844876611 0  0.2441393345609806 0.4646079201705268 0  0.564155561276476 0.06377568974770031 0  0.4099766375081771 0.06138466176609622 0  0.8514090314546759 0.04904899627332165 0  0.232463834806533 0.5063918881696488 0  0.4921057511616381 0.3192392293523589 0  0.07041885380931638 0.6033596993137911 0  0.9945187035740032 0.8568647268438836 0  0.0701884279619637 0.3493881901195742 0  0.6125521319460894 0.581385032566175 0  0.634819465142655 0.5693138763992084 0  
[...]
<PointData  Scalars="u"> 
<DataArray  type="Float64"  Name="u"  format="ascii">1.1520218048899722e-18  -8.4656389219274127e-19  -2.1937433331809676e-18  -1.8260707584098314e-18  5.7610004402741037e-20  3.8406676232702979e-20  1.0319918283399699e-19  3.4718573834090132e-20  -4.3200629553636027e-01  1.4850612512484686e-19  8.0989826845070129e-18  -5.5473303163118434e-18  6.6524065711215784e-18  1.7122050074826451e-17  -4.6659342332798063e-18  0.0000000000000000e+00  -1.3816830544829283e-17  8.7848434713964575e-18  -1.5519377826044870e-17  -3.1487350754998919e-17  -9.1813978891441940e-18  2.9523130364334183e-17  1.8111633437213657e-17  -1.1029654025928034e-17  -2.2098876283507165e-18  3.3487419136640751e-18  -2.1141066816978515e-17  6.7187812647128517e-18  1.6412292558254425e-18  -3.1271599465147107e-17  1.1917502530088163e-18  6.5763263663509339e-18  4.9044050207994037e-18  1.9583556778860359e-17  -2.2681647389756592e-17  -4.8963965133388551e-17  -8.6506152042875350e-18  -1.8911085421363774e-18  3.7335977648835480e-19  5.3339096454978973e-18  -5.2747901728618067e-17  4.8018971237214705e-18  2.2063214287928054e-18  -2.1092407256902111e-17  -1.0843371662870481e-17  1.4870638954052750e-18  1.4625985026788530e-18  -7.7759101204143710e-18  -9.6192374996577883e-18  -2.2155035675161398e-18  -1.9643609965254771e-18  9.7009773076729892e-18  1.3167787281073680e-18  1.6572888196236166e-18  -5.6186382071104643e-18  -1.7730165282870546e-18  -9.0434714738345225e-20  -2.2431397829702943e-18  -3.5569962659421705e-18  -1.8781209510589497e-17  -2.1310801588022789e-17  -4.3262797408047524e-18  6.7629073754181569e-18  -3.4594257555812248e-18  -3.9136469507688263e-18  -1.8978617864895211e-18  2.8070450281632427e-18  1.1231002978734066e-18  -5.1103711550585347e-18  1.5317107608670050e-17  1.1786759869171458e-17  -1.3935720850613253e-17  -8.7799390956142496e-18  -1.3447862870019360e-17  -1.0441154781077582e-17  -5.3688225233304735e-18  8.7892865078694079e-18  2.1512204934256107e-18  -3.9288502724446687e-19  -9.0151869199861217e-18  -1.7324371962591770e-17  5.4526584590261803e-19  8.5595039166013668e-19  6.6452952463294618e-18  1.6870976224000256e-18  5.8687598292254161e-21  -2.0320376910769342e-19  3.7466969445115036e-19  -2.7074345825377357e-19  -3.2413423520704511e-19  1.5463518933918266e-18  3.6204820600647384e-19  -3.6789164721685475e-18  2.5224584861832905e-22  -1.2461514679617634e-18  9.0027847880806032e-19  -7.5487723301076525e-19  -4.7674941628621767e-18  -9.7873399224306505e-19  4.1774856818982535e-18  -9.1605085869461813e-19  -6.4804090353442323e-19  -2.2050610369004864e-19  -2.6185853857719990e-19  -2.2611068087007385e-18  -8.1376404765216604e-20  6.8652089732775553e-19  -1.6730099939085384e-19  -1.1702728431411116e-19  6.5624982302580878e-19  -8.2340079088716927e-19  -3.2426788998761118e-18  -2.1697409695932889e-19  -4.2748270241421450e-19  1.6270357964516876e-19  7.0238974110337974e-19  -2.8518803873938638e-18  -6.3038805426405492e-18  -1.7431273356034851e-18  -1.4832856938644362e-18  1.4223225321145087e-19  -9.1867156446740628e-19  -5.1017631276808581e-18  -3.7028633077536245e-19  4.3617932634994764e-19  -2.6278049826597471e-18  -1.7084910603683282e-18  -8.5596680263951076e-20  2.4692939023019677e-19  -1.9292870541035999e-19  -7.0622572693824582e-20  4.2710500464023425e-20  -3.0269903391816946e-19  -1.1147153189882081e-18  -1.0768645792581398e-18  -7.2762254962779381e-19  1.6932657598655191e-19  9.3528087109406485e-19  4.1617839277925831e-19  -1.2262553362236364e-19  -5.3402852277044775e-19  -4.0269343267185941e-19  3.3205026914839644e-20  1.8555949786427107e-19  -1.6669756855693021e-18  -2.8320621779749229e-18  -2.8490090803502782e-18  -7.0412314502085870e-19  7.7833114125316475e-19  -1.9232245308513602e-19  -6.5178246382754917e-19  -3.0089132717848945e-19  -2.1829543523333356e-19  -3.8519616288841420e-20  -8.9544566037672639e-20  -1.9360196864107294e-19  3.5880284952356187e-19  -9.8016998727828959e-20  -2.1371874204899901e-19  1.9922523818091574e-18  1.1905107945059300e-18  -1.3008126567882355e-18  -1.7423623538095919e-18  -1.6550502564341049e-18  -1.6828800249317596e-18  -4.3602627096681181e-19  8.9863665763177485e-19  4.9818568632288031e-19  -2.8596358295700064e-19  -1.4564396309772352e-18  -1.9844313240583840e-18  -3.2061202680859615e-19  2.6629636934959302e-19  7.7891815719979382e-19  3.1916059560405398e-19  -9.7347521704467190e-20  -2.3280790355664125e-20  -4.3881644926699215e-01  -4.4071018025848591e-01  -4.3518092458790336e-01  -4.2842526140028381e-01  -4.2287333020623519e-01  -4.1845635704980966e-01  -4.1467319038259060e-01  -4.1115182932139899e-01  -4.0638592402650320e-01  -3.9908681762861631e-01  -3.9088704030488114e-01  -3.8385800431685413e-01  -3.7820580323448061e-01  -3.7354966524120015e-01  -3.6953468224047836e-01  -3.6598428488551615e-01  -3.6265488502398868e-01  -3.5943934954548451e-01  -3.5593971965977256e-01  -3.5277977657872389e-01  -3.4929442687063894e-01  -3.4666054558097237e-01  -3.5280801192015709e-01  -3.6435199052500056e-01  -3.7346794019735174e-01  -3.8135058841954644e-01  -3.8881759134074345e-01  -3.9572924637938522e-01  -4.0258479167384975e-01  -4.0948780086760184e-01  -4.1662389077758721e-01  -4.2400482622406166e-01  -3.7565705295837093e-01  -3.3335694227137869e-01  -3.6359767704820500e-01  -3.2769575716726496e-01  -3.5140598544244095e-01  -3.4674942049487323e-01  -3.8352003246492272e-01  -3.4311625459485989e-01  -3.7135549118187067e-01  -3.3030161163602012e-01  -3.8951863720307217e-01  -3.6951524212048092e-01  -3.3943124260355673e-01  -3.3703493653572908e-01  -4.0152116218152251e-01  -3.7661336010072383e-01  -3.6474565862124075e-01  -3.5006050147128281e-01  -3.4123130766587223e-01  -3.2886666050285146e-01  -3.2557678987990274e-01  -3.1723293772990591e-01  -3.1816944955930399e-01  -3.1235937968303279e-01  -3.1293765807163515e-01  -3.1065325005643718e-01  -3.2937295476994416e-01  -3.1376303410449519e-01  -3.1203395378437943e-01  -3.1838351993806391e-01  -3.2624966818484230e-01  -3.1812435643556419e-01  -3.1631212119870344e-01  -3.4498514512209250e-01  -3.2936115362225304e-01  -3.4205641678640886e-01  -3.4107480342999297e-01  -3.2499245105523072e-01  -3.5016104218917932e-01  -3.2205110869919368e-01  -3.1854919654821556e-01  -3.5145307523787489e-01  -3.4710968749139437e-01  -3.7314223354417392e-01  -3.2780166596795196e-01  -3.2346146727826786e-01  -3.3849277090831381e-01  -3.2650527731047385e-01  -3.4110583417204238e-01  -3.3396486967441191e-01  -3.3059674381348686e-01  -3.7269271425278705e-01  -3.8120768742992911e-01  -3.2999599548032904e-01  -3.3229198868797638e-01  -3.7424663591181206e-01  -3.2888895635192522e-01  -3.5733298468601615e-01  -3.4066159064534984e-01  -3.5827080906090519e-01  -3.5903073847481259e-01  -3.3140679222944963e-01  -3.1907569288076126e-01  -3.6293576225276386e-01  -3.9717205699050784e-01  -3.3350744200318072e-01  -3.5846676175759801e-01  -3.2162474470566754e-01  -4.3725874441648793e-01  -4.5092070872872886e-01  -4.1881070193304604e-01  -4.5874581826025290e-01  -2.2335375515356675e-02  -1.9025377916235455e-02  -4.4003996206061446e-01  -8.6566640393422409e-03  -3.7495543390141127e-02  -4.9567891132012702e-02  -3.8791933927163275e-01  -3.9871573587267628e-01  -2.7783743151318329e-02  -3.9063061132107929e-01  -1.4368649900165884e-01  -1.2964094974364057e-01  -3.7331531524438893e-01  -4.6066002221440050e-01  -1.7581874408353935e-02  -1.2810376433864246e-01  -1.4666576061968975e-01  -3.6060294336185394e-01  -1.5720567594999338e-01  -1.4806788538212240e-01  -8.5516868805192367e-02  -3.5889041278936251e-01  -4.0700349209118664e-01  -1.6459100542901114e-01  -1.0434279868382591e-02  -1.5696464627184298e-01  -4.6380186042007499e-01  -4.6381738142129619e-01  -4.6636219897125758e-01  -4.6603219311313143e-01  -4.6795362648364969e-01  -4.6580979161876568e-01  -4.6620941189147075e-01  -4.6111292160784778e-01  -4.5883253501716720e-01  -4.6382239575280249e-01  -4.6036515516813453e-01  -4.5294908102635489e-01  -4.5673237162763913e-01  -4.4829798937475979e-01  -4.4228796182020419e-01  -4.4365319393376668e-01  -4.2526348994700042e-01  -4.2210993033936239e-01  -4.2375350288576735e-01  -4.4116262150905095e-01  -4.1807809902557203e-01  -4.3546191307032861e-01  -4.0921941352225477e-01  -4.2710546602532296e-01  -3.9807127874033793e-01  -4.1685298383275010e-01  -4.0082981842270532e-01  -3.9573334683880473e-01  -3.8466183389114966e-01  -4.0413796857667461e-01  -3.8624896794772401e-01  -3.6972884648183713e-01  -3.6269881133038656e-01  -3.6863828164035251e-01  -3.8844357759397208e-01  -3.3243729275419259e-01  -3.2359549812724031e-01  -3.4730991591752219e-01  -4.1733724305556713e-01  -4.0184966025499180e-01  -3.6990080655998236e-01  -3.8259665901167389e-01  -3.4779007326151673e-01  -3.0453254870296786e-01  -3.2125075498238326e-01  -4.0804495806829877e-01  -3.8744706527580008e-01  -3.3310987507446910e-01  -4.3950986459289060e-01  -4.0718752313171080e-01  -3.8413551478710312e-01  -3.4191371155938122e-01  -2.7898598890934995e-01  -8.8036458019527475e-02  -2.5683653071736989e-01  -2.2266731183800761e-02  -5.4600427465782957e-03  -3.3245081826976171e-02  -4.4183565684149335e-02  -4.2292108530817035e-01  -3.6515585993015837e-01  -3.5147425233007190e-01  -3.5761885595847925e-01  -3.3834200564622513e-01  -3.3277990058557888e-01  -3.4369114621959429e-01  -4.6777383453200078e-01  -2.9097891964096245e-01  -3.6082548533867337e-01  -3.2264023408127585e-01  -1.1432344102025321e-01  -3.5310356274983112e-01  -2.8379963665907953e-01  -3.9955777683255955e-01  -3.6498465558037307e-01  -3.4989211144131388e-01  -2.3020479671869096e-01  -3.2571506718437537e-01  -4.5258849162301079e-01  -3.1341147929889424e-01  -3.1270396550169388e-01  -3.6942562955463126e-01  -3.3194331280939315e-01  -2.8366655473432961e-01  -2.8690388548114698e-01  -3.3420908422759049e-01  -2.8620056454541204e-01  -3.3359749369320246e-01  -2.8339477257822171e-01  -3.3077595758409939e-01  -2.7704982261772965e-01  -3.2523090283230582e-01  -2.7004829557993454e-01  -3.1784773559356005e-01  -3.6502566110645857e-01  -3.5775433775817023e-01  -3.1098077554676584e-01  -3.4962822980166419e-01  -3.8856801853854228e-01  -3.8036974975973531e-01  -3.4023061076837774e-01  -3.6941653460815710e-01  -3.2841439262204819e-01  -3.5360583793855599e-01  -3.8911114701458888e-01  -3.1362628848258889e-01  -3.6968029964129290e-01  -4.2278238073709318e-01  -3.9937630686552661e-01  -4.1858445269637962e-01  -3.7635543621202083e-01  -4.0153577886708075e-01  -3.7427324513698101e-01  -3.9649894898428206e-01  -3.4592562232779833e-01  -2.9416169448816748e-01  -4.2099451154602840e-01  -3.6401697347120754e-01  -3.8912405791286936e-01  -2.8794270765295871e-01  -2.6530985185030859e-01  -2.3110012351239190e-01  -1.5510001662370539e-02  -2.0506006915830879e-01  -1.7918398516740489e-01  -3.7390577140857234e-01  -4.1634477514544793e-01  -4.1984040376824494e-01  -4.1315083142269743e-01  -4.2621521612416108e-01  -1.9176351593944224e-01  -2.3621406255523633e-01  -3.2697741506393152e-01  -3.0055288666378782e-01  -3.2105282504504296e-01  -4.6324005132013063e-01  -2.2139027415945040e-01  -3.3019574711936583e-01  -2.7091527757218864e-01  -2.7614501931693847e-01  -3.0873481064022101e-01  -3.1273166595781182e-01  -3.4750905532908793e-01  -3.6838701366800375e-01  -3.3729042084551147e-01  -2.4596252237217126e-01  -2.1362110839093484e-01  -2.0523540611120572e-01  -2.7137655504405322e-01  -1.0499881775926428e-01  -2.8572334699443952e-01  -3.2024661797953796e-01  -2.8750085240980355e-01  -3.2063771970798893e-01  -3.7255450991169348e-01  -4.2141990342372937e-01  -2.0249620800038715e-01  -2.8201906973028762e-01  -2.9049446050876521e-01  -2.0214796196940485e-01  -1.5210753380767605e-01  -1.6383374809010592e-01  -1.3063538982927819e-01  -4.6430756632618408e-01  -2.4336298353291078e-01  -2.4747403607980320e-01  -3.2578878049251819e-01  -4.1125565339907966e-01  -4.1834575682481562e-01  -4.3329845697765168e-01  -4.3879146127029944e-01  -4.4688798128243734e-01  -4.5112739211985992e-01  -4.4352978008134419e-01  -4.5300412950589997e-01  -4.4910464763370334e-01  -4.5039412299426274e-01  -4.4697838451728994e-01  -4.4446712071655614e-01  -4.4294977725664519e-01  -3.2281093759999707e-01  -3.4646638344687208e-01  -2.9263908936643301e-01  -3.9658635762500755e-02  -4.8658530892203671e-02  -4.2842081227277151e-01  -4.1406528432454476e-01  -3.8222992753242474e-01  -3.6301652247432525e-01  -3.2214566781896453e-01  -3.4233048973711855e-01  -3.7567319543566297e-01  -3.5815006576672598e-01  -3.8814741867300406e-01  -3.7051513942794567e-01  -3.9147168090220735e-01  -3.7778290005339793e-01  -3.4987687721344174e-01  -3.5905846866631735e-01  -3.8219287992486939e-01  -3.6397876978319338e-01  -3.8249859494848326e-01  -3.6351998959416110e-01  -3.7817672193627649e-01  -3.5682740583564693e-01  -3.3656831739939047e-01  -3.6860117022910477e-01  -3.4302915761530633e-01  -3.2233608458372875e-01  -3.5259621458981666e-01  -3.2081487654966123e-01  -3.0950483748984775e-01  -3.9536919686374900e-01  -3.8418498793585149e-01  -3.1464911701783410e-01  -4.3266689772591299e-01  -2.5136212037848660e-01  -1.4170356272712700e-01  -1.5032940953228799e-01  -1.6882502018817874e-01  -3.2824921153974446e-01  -3.5828272189494503e-01  -2.8738894189969727e-01  -3.2818895831006667e-01  -3.0310951457691904e-01  -1.7332184175022045e-01  -4.3878542237339824e-01  -4.0022516497162658e-01  -4.0025250815122332e-01  -4.4616340029939977e-01  -4.5657805819691494e-01  -1.8529783944690620e-01  -1.1048713154193497e-01  -4.3425627448122650e-01  -1.3897502102730603e-02  -2.7518495509309587e-01  -2.4874059258964670e-01  -2.1095423244751582e-01  -1.8354605988634951e-01  -3.4440700310901234e-01  -4.2100046144879100e-01  -3.0616154720302302e-01  -2.6828879050493420e-01  -2.8856233270711823e-01  -2.0227410628124956e-01  -2.0019631332292240e-01  -1.5836658208306062e-01  -1.4468543290353014e-01  -1.3157478406200765e-01  -1.0840428698351927e-01  -1.0994291589268224e-01  -1.6957321467197353e-01  -1.3505390989487454e-01  -1.9903743431138018e-01  -1.2743338871779639e-01  -1.9083342963898348e-01  -1.1974918214680673e-01  -1.8371440966163413e-01  -3.8187826514210693e-01  -3.8991270494529451e-01  -3.7895159660605154e-01  -3.9603797471134849e-01  -4.0346094880039785e-01  -4.0792686075345175e-01  -4.1521195027849139e-01  -4.1758033459848215e-01  -4.2515327220616678e-01  -4.2629964145843485e-01  -4.3348562386668654e-01  -4.3426367566129132e-01  -4.4044278856250030e-01  -4.4154282001315254e-01  -4.4718065345303892e-01  -4.4848170547161925e-01  -4.5284951803538587e-01  -4.5517073017336213e-01  -4.5709436401684717e-01  -4.5986888336620657e-01  -4.4807027016791112e-01  -4.5640927868639192e-01  -4.6141234141237875e-01  -4.6326038942191433e-01  -4.6528065543948954e-01  -2.5332891733945445e-01  -1.6739871655487581e-01  -3.1353061355488254e-01  -2.3543584318190869e-01  -4.3402292845639195e-01  -4.1100878097690519e-01  -2.8378849052000177e-01  -2.9027594361812942e-01  -1.1637572531792038e-01  -3.4243571547296286e-01  -4.2078516925034121e-01  -2.1151720707441954e-01  -2.2264699753827777e-01  -4.0630282756410102e-01  -4.0353093314124683e-01  -3.2050803423565216e-01  -3.2954867377004626e-01  -4.0934948543515426e-01  -6.5417860227650698e-02  -2.8548570714017335e-01  -1.8413159175981880e-01  -5.7100202700808705e-02  -4.5039470970379808e-01  -5.3963124689784633e-02  -4.3612901636437945e-01  -2.2754140147750457e-01  -2.5151900010620931e-01  -3.0110159361912570e-01  -2.6425081928760979e-01  -1.8243380705153267e-01  -4.4887305684281237e-01  -2.3896072478875680e-01  -4.4249895871626671e-01  -4.3727260368161824e-01  -4.6294143442833463e-01  -4.1301186882272667e-01  -1.1622381842498238e-01  -1.0389004057173819e-01  -4.5186381938897580e-01  -1.0137807347184798e-01  -1.6687628928138584e-01  -9.0031160706188926e-02  -4.6566478812598561e-01  -4.5636127577725999e-01  -4.5498024228471384e-01  -4.0522211025173793e-01  -4.0179168533704140e-01  -4.0140650228832686e-01  -1.3747118249143345e-01  -1.6618035159382344e-01  -1.0929114105448674e-01  -1.5221518952101643e-01  -3.9958771014622368e-01  -1.1324990011966680e-01  -1.7549059158105854e-01  -1.0413988330795439e-01  -1.6279428324583153e-01  -2.2446477442653162e-01  -2.0646370936246150e-01  -1.4634896000217407e-01  -1.7887316348793916e-01  -2.3370488002024273e-01  -1.2183940970341842e-01  -1.9353349643965490e-01  -2.4326383629814149e-01  -1.8656509742942798e-01  -2.3414402770109558e-01  -2.8186507872586197e-01  -4.5381564714555539e-01  -3.6725116435127086e-01  -3.6955962529719916e-01  -3.7640454943878732e-01  -3.6040477078584682e-01  -4.0533501305050723e-01  -3.9192548318166909e-01  -3.9598010970232994e-01  -3.9090468567144560e-01  -3.8449474691527624e-01  -3.8671337187603400e-01  -3.9256961834452025e-01  -4.3254458758401332e-01  -2.5879330311708709e-01  -2.1649453032686328e-01  -2.5507131056986754e-01  -2.2966920023984080e-01  -1.6644177659757897e-01  -4.1949654679907045e-01  -4.4161293990397432e-01  -1.7206465082895684e-02  -9.8871473946690422e-02  -3.7481170836278221e-01  -1.5341730456484554e-01  -2.3231938055259135e-01  -2.1331710029180553e-01  -1.3177651950570307e-01  -1.9258402398277269e-01  -2.5132215043523431e-01  -2.1590795343425601e-01  -1.5980942580366914e-01  -9.3649518224766637e-02  -2.7348297297447910e-01  -4.2651871197646207e-01  -4.3630071841029222e-01  -4.2961314494587788e-01  -4.0249693814049137e-01  -1.6361695342721522e-01  -3.7875263799951864e-01  -3.3251630587020348e-01  -3.4341082153605673e-01  -4.0288839259907683e-01  -3.9624474035227353e-01  -4.0728717361657479e-01  -3.7190370375650306e-01  -4.0641837690030025e-01  -4.0652713862653989e-01  -4.3184823477571488e-01  -4.2998744901073910e-01  -4.3096357523789364e-01  -4.0466781908255489e-01  -4.2859691313433868e-01  -4.4939651634425259e-01  -4.0094026940906752e-01  -4.5929072768876034e-01  -4.4713170461095531e-01  -4.6007279108321675e-01  -3.3587958855901226e-02  -7.1828030786298777e-02  -4.4536755370322634e-01  -3.2659682266550161e-01  -3.6525841102688694e-01  -8.3880559733127247e-02  -2.6098928592829412e-01  -2.5584259330456299e-02  -2.8602949093273638e-02  -2.8824288881624643e-01  -2.7714385173784345e-01  -1.4482104299552495e-01  -1.3910398150678457e-01  -2.0349886490459182e-01  -3.9400210739079655e-01  -3.9520602885108874e-01  -3.9173199555767718e-01  -3.9585982439336737e-01  -3.9869019161060026e-01  -4.4405654239369902e-01  -1.2170621123038058e-01  -1.8447168126006958e-01  -9.7175016969794456e-02  -3.6983611709031333e-01  -1.4986553638717034e-01  -2.4583278099839254e-01  -2.2867337063596613e-01  -1.0626350504270661e-01  -4.5563102639416975e-01  -2.3535496348316987e-01  -4.1357676073933908e-01  -4.5482726665566409e-01  -1.3100915532537429e-02  -2.8973731774254396e-02  -3.2611670312053573e-02  -2.4419465817263356e-01  -4.3835615711537224e-01  -7.1338838066611301e-02  -3.7311591905480418e-01  -2.2118710703520406e-01  -1.6540337521443804e-01  -3.4691643025296320e-01  -3.1657332080102706e-02  -3.2116724786755851e-01  -2.1655401553263984e-01  -6.5874181543414637e-02  -1.8128209930043264e-02  -8.2624492521307102e-02  -6.0331356204098491e-02  -3.9638842769959187e-02  -4.1408979161897325e-01  -3.7115656807782921e-01  -2.5538147995047311e-01  -4.4032963257712487e-01  -3.7289074692006297e-01  -1.2999307646201859e-02  -5.9049587144977919e-02  -1.4741715871480501e-01  -3.8418609493228978e-01  -2.6233668063535925e-01  -4.2517445016293354e-01  -6.7206864823395329e-03  -1.3465145835916387e-01  -9.5424440768465554e-02  -8.1815039013543145e-02  -1.6367832642878394e-01  -2.3281678578283127e-01  -1.7549045361947905e-02  -3.8362452533083996e-01  -2.4240512254264029e-01  -4.6035868936923718e-01  -4.5395824402957113e-01  -3.7394498628094974e-01  -1.7008381462657579e-01  -2.9348297922530475e-01  -1.4229759421283736e-01  -4.2640269536023973e-01  -3.3387194143043919e-01  -2.7410339796648642e-01  -4.5039687990177318e-01  -1.1196719891066222e-01  -1.4791546358831675e-01  -2.2280013449965325e-01  -2.2459438266079951e-01  -3.596986056052