<?xml version="1.0"?>
<VTKFile type="UnstructuredGrid"  version="0.1"  >
<UnstructuredGrid>
<Piece  NumberOfPoints="1078" NumberOfCells="2058">
<Points>
<DataArray  type="Float64"  NumberOfComponents="3"  format="ascii">0 0 0  0 1 0  1 1 0  1 0 0  1.1 -0.1 0  -0.1 -0.1 0  1.1 1.1 0  -0.1 1.1 0  0.5022171590331148 0.5534775090682903 0  0 0.9499999999997918 0  0 0.8999999999995836 0  0 0.8499999999996529 0  0 0.7999999999999998 0  0 0.7500000000003466 0  0 0.7000000000006934 0  0 0.6500000000010401 0  0 0.6000000000013869 0  0 0.5500000000017335 0  0 0.5000000000020587 0  0 0.4500000000018723 0  0 0.4000000000016644 0  0 0.3500000000014564 0  0 0.3000000000012483 0  0 0.2500000000010403 0  0 0.2000000000008322 0  0 0.1500000000006241 0  0 0.100000000000416 0  0 0.05000000000020799 0  0.04999999999989965 0 0  0.09999999999981467 0 0  0.1499999999997036 0 0  0.1999999999995579 0 0  0.2499999999994121 0 0  0.2999999999992664 0 0  0.3499999999991206 0 0  0.3999999999989749 0 0  0.4499999999988292 0 0  0.4999999999986943 0 0  0.5499999999988151 0 0  0.5999999999989468 0 0  0.6499999999990784 0 0  0.69999999999921 0 0  0.7499999999993417 0 0  0.7999999999994734 0 0  0.8499999999996051 0 0  0.8999999999997368 0 0  0.9499999999998684 0 0  1 0.04999999999989965 0  1 0.09999999999981467 0  1 0.1499999999997036 0  1 0.1999999999995579 0  1 0.2499999999994121 0  1 0.2999999999992664 0  1 0.3499999999991206 0  1 0.3999999999989749 0  1 0.4499999999988292 0  1 0.4999999999986943 0  1 0.5499999999988151 0  1 0.5999999999989468 0  1 0.6499999999990784 0  1 0.69999999999921 0  1 0.7499999999993417 0  1 0.7999999999994734 0  1 0.8499999999996051 0  1 0.8999999999997368 0  1 0.9499999999998684 0  0.9499999999997918 1 0  0.8999999999995836 1 0  0.8499999999996529 1 0  0.7999999999999998 1 0  0.7500000000003466 1 0  0.7000000000006934 1 0  0.6500000000010401 1 0  0.6000000000013869 1 0  0.5500000000017335 1 0  0.5000000000020587 1 0  0.4500000000018723 1 0  0.4000000000016644 1 0  0.3500000000014564 1 0  0.3000000000012483 1 0  0.2500000000010403 1 0  0.2000000000008322 1 0  0.1500000000006241 1 0  0.100000000000416 1 0  0.05000000000020799 1 0  -0.1 1.05000000000004 0  -0.1 1.000000000000079 0  -0.1 0.9500000000001624 0  -0.1 0.9000000000003032 0  -0.1 0.850000000000444 0  -0.1 0.8000000000005848 0  -0.1 0.7500000000007256 0  -0.1 0.7000000000008665 0  -0.1 0.6500000000010508 0  -0.1 0.6000000000012352 0  -0.1 0.5500000000014196 0  -0.1 0.500000000001539 0  -0.1 0.4500000000014195 0  -0.1 0.4000000000013 0  -0.1 0.3500000000011588 0  -0.1 0.3000000000010178 0  -0.1 0.2500000000008986 0  -0.1 0.2000000000007579 0  -0.1 0.1500000000006174 0  -0.1 0.1000000000005272 0  -0.1 0.05000000000040083 0  -0.1 2.671196597248127e-13 0  -0.1 -0.0499999999998666 0  -0.0500000000000906 -0.1 0  -1.730560139634463e-13 -0.1 0  0.04999999999975802 -0.1 0  0.09999999999961506 -0.1 0  0.1499999999994613 -0.1 0  0.199999999999302 -0.1 0  0.2499999999991446 -0.1 0  0.2999999999990088 -0.1 0  0.3499999999988296 -0.1 0  0.3999999999986936 -0.1 0  0.4499999999985143 -0.1 0  0.4999999999984002 -0.1 0  0.5499999999985247 -0.1 0  0.5999999999986493 -0.1 0  0.6499999999987955 -0.1 0  0.6999999999989417 -0.1 0  0.7499999999990659 -0.1 0  0.7999999999992116 -0.1 0  0.8499999999993573 -0.1 0  0.8999999999994526 -0.1 0  0.949999999999584 -0.1 0  0.9999999999997226 -0.1 0  1.049999999999861 -0.1 0  1.1 -0.0500000000000906 0  1.1 -1.730560139634463e-13 0  1.1 0.04999999999975802 0  1.1 0.09999999999961506 0  1.1 0.1499999999994613 0  1.1 0.199999999999302 0  1.1 0.2499999999991446 0  1.1 0.2999999999990088 0  1.1 0.3499999999988296 0  1.1 0.3999999999986936 0  1.1 0.4499999999985143 0  1.1 0.4999999999984002 0  1.1 0.5499999999985247 0  1.1 0.5999999999986493 0  1.1 0.6499999999987955 0  1.1 0.6999999999989417 0  1.1 0.7499999999990659 0  1.1 0.7999999999992116 0  1.1 0.8499999999993573 0  1.1 0.8999999999994526 0  1.1 0.949999999999584 0  1.1 0.9999999999997226 0  1.1 1.049999999999861 0  1.05000000000004 1.1 0  1.000000000000079 1.1 0  0.9500000000001624 1.1 0  0.9000000000003032 1.1 0  0.850000000000444 1.1 0  0.8000000000005848 1.1 0  0.7500000000007256 1.1 0  0.7000000000008665 1.1 0  0.6500000000010508 1.1 0  0.6000000000012352 1.1 0  0.5500000000014196 1.1 0  0.500000000001539 1.1 0  0.4500000000014195 1.1 0  0.4000000000013 1.1 0  0.3500000000011588 1.1 0  0.3000000000010178 1.1 0  0.2500000000008986 1.1 0  0.2000000000007579 1.1 0  0.1500000000006174 1.1 0  0.1000000000005272 1.1 0  0.05000000000040083 1.1 0  2.671196597248127e-13 1.1 0  -0.0499999999998666 1.1 0  0.5298696049032749 0.5497100448432627 0  0.5534846013129142 0.5339925925098753 0  0.5608539617329362 0.5064410082090164 0  0.5616707575017038 0.4784731225725127 0  0.5606448352367577 0.4506729844836363 0  0.5575863549836583 0.4230161644462387 0  0.5521271427025349 0.3955203601431861 0  0.5434632067998655 0.3684923114067697 0  0.5295756221064667 0.3432729058061881 0  0.5069467155040033 0.3258226530179241 0  0.4795206305400948 0.325847868632529 0  0.4537141131087667 0.3335550875017712 0  0.4290949649684451 0.3435950010654786 0  0.4051549756650819 0.3548936663329428 0  0.3817344639612139 0.3670191048189315 0  0.358739739575287 0.3797784111495677 0  0.3361060287023544 0.393062980712042 0  0.3138810999146097 0.406897700759769 0  0.2920904593987975 0.4213419670574119 0  0.2708889465958791 0.4365482326690074 0  0.2507308197225384 0.4529887594216054 0  0.2334474024060461 0.4723435877530502 0  0.2382206592828713 0.4956774269830067 0  0.2625281472455414 0.5094751184506809 0  0.2883769856461111 0.5192885857179007 0  0.314594480740124 0.5272335906544083 0  0.340994984176982 0.5339360132586377 0  0.3675081707920222 0.5396583208806481 0  0.3941218152316042 0.5444679707483473 0  0.4208633271950157 0.548383025034285 0  0.4477404011067859 0.5513635433537192 0  0.4748265424698796 0.553225241601491 0  0.5353912226452042 0.4387956918961955 0  0.404741128666621 0.383876143609592 0  0.4398716340660753 0.5241685667587049 0  0.3374920478989996 0.4203243053278318 0  0.3822647312654189 0.5183060371485221 0  0.4527564705437328 0.3631721493068336 0  0.4899249022088543 0.5280425806619176 0  0.3308599848712129 0.507310176311161 0  0.5245462027241075 0.3868984944866097 0  0.2956886230691594 0.4489340961317027 0  0.5361419777428038 0.4918970500101945 0  0.4995918672697317 0.3485203570379942 0  0.2811538441355293 0.4916229309034564 0  0.2570249082429051 0.4808737317780096 0  0.5334353257603287 0.5195941544277702 0  0.5078177324906277 0.5057372924970857 0  0.5141243772524051 0.4759985162292134 0  0.4884846570637996 0.485584996158488 0  0.4923351783272779 0.4583596398881157 0  0.466931074504798 0.4673700985130848 0  0.4711091589176003 0.439341688996107 0  0.4454563862496757 0.4486719632463289 0  0.4493366071968634 0.4206626258062565 0  0.4238686961496926 0.4298685747112749 0  0.4199608681931528 0.4579158819661617 0  0.3985320604996682 0.4389248383585431 0  0.4749942726163237 0.4113407253691304 0  0.3949056387508594 0.4666195231574954 0  0.3744922307050198 0.4479804545414822 0  0.3711791657268972 0.4742912093261227 0  0.4156201869736666 0.4860435134873192 0  0.3789281027187716 0.4209515770996896 0  0.3507837731739419 0.4566334910215709 0  0.4603183411944219 0.4975876137962165 0  0.4522014503318441 0.3926037824596664 0  0.4756583655573808 0.3830957916907772 0  0.4954544615162735 0.4316651723361313 0  0.4412903209385997 0.4768041625022518 0  0.5030836466170574 0.4044949413639601 0  0.4270961202890461 0.4021563328573604 0  0.4025050779710337 0.4115682947260565 0  0.411488768832154 0.5163746489816643 0  0.3564953757054347 0.513485772161213 0  0.4656945000409223 0.5269605022348978 0  0.315781139864812 0.4335313593420969 0  0.323168955652031 0.4606631172139864 0  0.4285486502273007 0.3733989197130994 0  0.3465565198016326 0.4851384378700939 0  0.3058659086868374 0.5010664904641166 0  0.2758125129471568 0.4643719469020106 0  0.3807810535540321 0.3945664363873702 0  0.5317435503524265 0.4125825004719063 0  0.5373046719857725 0.4647248620253832 0  0.3922354226089044 0.4929135519838202 0  0.2989936968831914 0.4753537034677274 0  0.5196230072101681 0.3651972248479211 0  0.3584808502032505 0.4064777105326329 0  0.4770117203066006 0.3555110163610996 0  0.4349946728435994 0.5000875707029944 0  0.5003630416712911 0.3762726288843385 0  0.5154416385613324 0.4502259046247329 0  0.3211206234199599 0.4859262100552386 0  0.3566560934873288 0.4316250238035076 0  0.4816478384624772 0.5078161052992688 0  0.5120860838012282 0.5315861817763209 0  0.3697745789268017 0.4968448307215903 0  0.5162590790739735 0.4275648784022585 0  0.3347692868330192 0.4409780708099113 0  0.5639723337094192 0.3762659346814594 0  0.580135419024698 0.4647511327658963 0  0.3498960664682122 0.5547603988605001 0  0.5159697103458073 0.5696486971610221 0  0.9736319727425554 0.69790922820765 0  0.6402327203500146 0.9796573448645257 0  0.4310315963564748 0.5694180070118057 0  0.9819124832963462 0.5374353594822333 0  0.9707477409091366 0.2781815413041587 0  0.2856920327549343 0.9683238201495595 0  0.3364185738198318 0.3679069261961939 0  0.4074326687781379 0.3290605406032959 0  0.4398072021753372 0.9768975664898515 0  0.2701047298194602 0.530679399057599 0  0.0609281500724526 0.7445306065472502 0  0.695026951221666 0.05218580434125768 0  0.2675090615955559 0.4113103742209531 0  0.5750296605361137 0.5233678825123665 0  0.7956024790763474 0.978973159145694 0  0.2401830708060815 0.05370172838984501 0  0.06108575806266196 0.2420306393195101 0  0.2279610907804361 0.4468649735250689 0  0.5483681505301752 0.05849488985506884 0  0.3966757071996715 0.05493711766648998 0  0.8390607464876989 0.04815819838775915 0  0.2164198771197239 0.4858537471098263 0  0.4620698073083122 0.3122174731428315 0  0.06063132461306314 0.5912767916339605 0  0.9804068115250836 0.8446991962899159 0  0.0586592362148954 0.3399637208298164 0  0.5689259275338906 0.5480144581593238 0  0.591016513907707 0.5386940045162034 0  0.585
[...]
<PointData  Scalars="u"> 
<DataArray  type="Float64"  Name="u"  format="ascii">-1.1888559751159969e-18  -6.2303165360102023e-20  -2.5434067993059086e-18  -1.6192032595207193e-18  7.4508350039546663e-20  7.3383411410511874e-20  1.1960458818754362e-19  -5.3267976530850781e-21  -4.9593511304324778e-01  3.7812605122070444e-19  9.1184514792915595e-18  4.3215060653322051e-18  8.3960391126500076e-18  -4.9066978994827862e-18  -1.9982104613248233e-17  7.9132704770732083e-18  -2.5058316545540267e-18  -8.7995778453573220e-19  3.8881186327175361e-18  -2.4203788378384517e-17  1.2641525568183862e-17  -1.0791876548986700e-17  7.5200652401099424e-18  6.0965746053530822e-19  -1.5224744506305860e-18  -6.1260353873952544e-19  1.7359787075665269e-18  6.7461109141546979e-18  -2.9687113416642969e-18  -7.7487917645831467e-18  4.4884755160550990e-18  -2.0306422789306625e-18  -1.3132383244549250e-17  -9.4311795289968039e-18  -2.1867210671383208e-17  -2.6322342267669261e-17  8.5077630150203136e-18  5.0376725064039729e-18  1.7162526063371303e-18  9.3126925115617515e-18  2.9446965476227359e-18  1.0811433176793896e-17  8.9812112050268248e-18  -8.0265081540171079e-18  -8.6973273150503101e-18  2.9092689870786014e-18  4.2620842638790010e-18  -4.1988646412210962e-18  -6.0919348223761048e-18  -1.6302144109115443e-18  -2.2080003364404460e-18  1.3890780736276486e-17  2.5084741964128559e-18  8.6555453629946827e-19  -6.1572445574164850e-18  -1.0287486238699116e-18  1.7577395100893557e-19  0.0000000000000000e+00  -4.7860400662347718e-18  -1.2978059996258466e-17  -1.8270730157671768e-17  -4.9749189372935071e-18  4.6549923989067101e-18  -3.6675843797156527e-18  -3.5770911865555120e-18  -9.5932508815539576e-19  1.9015405150352499e-18  -7.7757881706073793e-19  -2.9714672608850946e-18  1.3451710716215018e-17  1.0084316077628318e-17  -9.4821437495752520e-18  -8.4802063355142318e-18  -1.8010933131517079e-17  -1.0281010286585692e-17  3.3339558790687124e-19  9.4979700297748452e-18  4.6283348845214802e-18  2.7667491224087485e-18  -1.3659683776398691e-17  -1.0584219826199144e-17  4.6441438558344261e-18  -5.9895267732462071e-18  4.7399299058854717e-18  4.5863769556428353e-19  3.4158594350578288e-20  -1.4168557545030633e-19  4.0889172479683858e-19  6.5675393338786656e-19  9.4586657316353741e-19  1.2378892488334150e-18  -1.6479770843760852e-18  -4.5214179363114652e-18  7.2597193867440767e-19  -2.4190769889437299e-20  2.6944467690971451e-19  -4.7179827063172834e-19  -1.7853289410042874e-18  7.8181574485420730e-20  -2.7216388556038358e-19  -1.3398067595152221e-18  7.1095869585019953e-19  -3.2324171461229714e-19  -1.0555451917864246e-19  4.1992677084108758e-19  6.4155374911905419e-19  7.5633751292711331e-20  -1.3430311050190336e-19  8.0343758725739799e-21  -1.3565299593849853e-19  -6.6867317918084646e-19  -7.5109897470570682e-19  5.0636583430100051e-19  -8.5496540482842899e-19  -2.1383302408885748e-18  -1.5250869400470593e-18  -3.1440649229393754e-18  -3.1079348870046094e-18  4.7812906801181751e-19  5.2392952597865236e-19  5.1805693279240850e-19  9.1612881426924589e-19  7.5947159653067454e-19  1.7902682867398105e-18  8.9606362176300040e-19  -9.0895318129734171e-19  -1.1975122925390223e-18  2.9958838092382879e-19  5.3740698749508274e-19  -9.7261048557970128e-20  -9.6891016215494546e-20  8.0779296509641830e-21  -2.1353684918156101e-19  -6.4673587811357160e-19  -6.8438763892068516e-19  -6.1751051047404228e-19  2.3671569556763961e-19  1.3769723890126355e-18  7.4247931629601012e-19  -2.3293716032202348e-19  -6.0381585641086849e-19  -3.2245038915667177e-19  1.0316124866746296e-19  9.9729656218231860e-20  -1.3080002647494687e-18  -2.0938739557333731e-18  -2.3756508021100226e-18  -7.8529145449685755e-19  3.8586195797270647e-19  -2.4431245646393798e-19  -5.6943402469624377e-19  -2.1466542534048852e-19  -2.2831965172562777e-19  -6.1503403381783618e-20  -9.0012789545209129e-20  -2.2520300048167926e-19  1.5889272418685059e-19  -2.2913914462811345e-19  -4.4098451944343746e-20  1.6544680297249358e-18  1.0102981705831866e-18  -7.9855865432558474e-19  -1.6895273635070929e-18  -2.2304910686316202e-18  -1.6294435017926522e-18  1.9009521202234571e-19  1.1898316703905490e-18  7.3137898630380309e-19  -1.2934340369024952e-19  -1.6892623558292600e-18  -1.2964834610004313e-18  1.2824481072343847e-19  -2.8361086893533213e-19  2.2401386416807343e-19  3.1320991937915984e-19  -7.6706182649626536e-20  1.0576842044395718e-20  -5.0554629632309134e-01  -5.0908653359456724e-01  -5.0299597335971313e-01  -4.9429779515740779e-01  -4.8586882952078925e-01  -4.7791292836212435e-01  -4.6984088367838839e-01  -4.6112806027238040e-01  -4.5030322376570120e-01  -4.3707597204150095e-01  -4.2516680496345316e-01  -4.1594954329445144e-01  -4.0843825965805430e-01  -4.0198889467264765e-01  -3.9619182602053754e-01  -3.9079109999855699e-01  -3.8554486153631007e-01  -3.8007348205341362e-01  -3.7454081332704042e-01  -3.6913927775012501e-01  -3.6331487409940810e-01  -3.5922986634503107e-01  -3.6876142162549741e-01  -3.8717137857874212e-01  -4.0247310101593364e-01  -4.1562964236669553e-01  -4.2818368029104187e-01  -4.3997030566271289e-01  -4.5127439006701409e-01  -4.6240669498685127e-01  -4.7346512830830684e-01  -4.8453127559700937e-01  -4.3885011400840379e-01  -3.7470763136725665e-01  -4.2373847182009616e-01  -3.6211788433773223e-01  -4.0242854426199604e-01  -3.9131621990188853e-01  -4.4951252859180846e-01  -3.8398910642310397e-01  -4.2652557919807088e-01  -3.5990864904475883e-01  -4.5774836337072278e-01  -4.1494249522292109e-01  -3.6829815390090787e-01  -3.5868849001567760e-01  -4.6984200592219122e-01  -4.4562317570822602e-01  -4.3396313437291717e-01  -4.2044831073826566e-01  -4.0956152930318307e-01  -3.9613370425797456e-01  -3.8963443591576186e-01  -3.7932805689841087e-01  -3.7798407103234899e-01  -3.7054409472042421e-01  -3.7343420516943787e-01  -3.6530485209338764e-01  -3.9116235943876854e-01  -3.7127533451403832e-01  -3.6325949894121479e-01  -3.7137914235721181e-01  -3.8751235538879109e-01  -3.6425513939209864e-01  -3.6359724622707451e-01  -4.1150455465648761e-01  -3.8312852847377671e-01  -3.9616517737888379e-01  -4.0571914950341648e-01  -3.9033049650493379e-01  -4.1038444546105896e-01  -3.7405684191865357e-01  -3.6809417863395272e-01  -4.0834543454202832e-01  -3.9306982345985664e-01  -4.3641371141086627e-01  -3.5980456800723731e-01  -3.6342543162663432e-01  -3.8159869398051049e-01  -3.7358183731725253e-01  -3.7677761504588064e-01  -3.5969177942790675e-01  -3.6950761229178719e-01  -4.3223660430306732e-01  -4.4740795443523823e-01  -3.8606467993632221e-01  -3.6585120652631281e-01  -4.2444319871122976e-01  -3.6556110124008850e-01  -4.0293855980769594e-01  -4.0351615095134541e-01  -4.1145786112058219e-01  -4.2525058146631206e-01  -3.7193938345788785e-01  -3.6162298625326605e-01  -4.3067704224431969e-01  -4.6423125019880129e-01  -3.8421811340483386e-01  -4.2156547794900334e-01  -3.6076005201702238e-01  -4.8986398337281578e-01  -5.1657740641546546e-01  -4.6014306527538168e-01  -5.2438005778477792e-01  -7.0613195010472057e-02  -5.7436596726268080e-02  -4.9506619799655910e-01  -5.3466901692552027e-02  -7.4429889113499487e-02  -8.0532053672353110e-02  -4.0678942897663295e-01  -4.2324314264801866e-01  -6.6824460237936853e-02  -4.1566581226844818e-01  -1.3728421270621805e-01  -1.2921072648916396e-01  -3.8551798573700291e-01  -5.2999682970567985e-01  -4.8202678305925284e-02  -1.1476863813388052e-01  -1.2759596895606157e-01  -3.6896944085420236e-01  -1.5245585305177992e-01  -1.3808949874901066e-01  -9.0525389501857345e-02  -3.6857298953429424e-01  -4.3604961362509126e-01  -1.5134537485587404e-01  -3.9445182152200407e-02  -1.3711431895266671e-01  -5.3346042318333009e-01  -5.3480748355300545e-01  -5.3772703218651452e-01  -5.3863334451131339e-01  -5.4066682843718805e-01  -5.3962670855943795e-01  -5.3982439763882162e-01  -5.3575003854113912e-01  -5.3299983768171777e-01  -5.3690248403590457e-01  -5.3505697710013223e-01  -5.2638687224280112e-01  -5.2911742024616726e-01  -5.2352860990641936e-01  -5.1492453682046591e-01  -5.1537459932723306e-01  -4.9715245031451244e-01  -4.9458154469728161e-01  -4.9493135387779302e-01  -5.1168082787909275e-01  -4.8816806716586630e-01  -5.0423225399079330e-01  -4.7763611684032531e-01  -4.9339331690008348e-01  -4.6402004166083571e-01  -4.7972546227042318e-01  -4.7233517176025974e-01  -4.6753252717934413e-01  -4.4725577995661087e-01  -4.6264203256329994e-01  -4.5608215237443783e-01  -4.4022432513521470e-01  -4.3315995977283722e-01  -4.2687370096955973e-01  -4.4175796116133470e-01  -4.0113951749251198e-01  -3.9192124428683567e-01  -4.1810527353787441e-01  -4.7088332037890884e-01  -4.4930141919252609e-01  -4.1708642350366643e-01  -4.2326570571567984e-01  -3.8805261177684530e-01  -3.7287992845734175e-01  -3.9277817139064364e-01  -4.4905304000990670e-01  -4.2113933722849178e-01  -4.0242754595505908e-01  -5.0290104138462555e-01  -4.4156272314390049e-01  -4.1046848759588811e-01  -4.0413094734794075e-01  -3.4420148913291199e-01  -8.5921226004415638e-02  -3.2175616616928526e-01  -6.0803982919694452e-02  -4.8187117584724541e-02  -5.7491849602332050e-02  -6.2660734271299492e-02  -4.6384731613147184e-01  -3.7783097628892975e-01  -3.5820351335569500e-01  -3.6687982666230545e-01  -3.4127730688242042e-01  -3.3331269974323491e-01  -3.4875037780826901e-01  -5.3906531638554389e-01  -3.5799064365470196e-01  -3.8665430521495009e-01  -3.8036563009717267e-01  -9.9230553593411874e-02  -3.7113604202978001e-01  -3.5181683141217102e-01  -4.2684680190073060e-01  -3.7669340105899796e-01  -3.5717169429318119e-01  -2.9114267040332359e-01  -3.4334825990183404e-01  -5.2184620548222183e-01  -3.1019840613498950e-01  -3.0836722994961063e-01  -4.4305248965503191e-01  -4.0662906577871621e-01  -3.5616371906114841e-01  -3.6260004995809697e-01  -4.1147702370595285e-01  -3.6436504528162572e-01  -4.1256555492060532e-01  -3.6302512064079639e-01  -4.1039120739546076e-01  -3.5689762261734209e-01  -4.0413281494508629e-01  -3.4868635675794962e-01  -3.9457940480638637e-01  -4.4172069824215571e-01  -4.3126301925285881e-01  -3.8381161890488580e-01  -4.1844490744177804e-01  -4.5797463057797827e-01  -4.4403466549999110e-01  -4.0286567677564883e-01  -4.2599462874342403e-01  -3.8357660211274958e-01  -4.0218252024547935e-01  -4.3914260591444060e-01  -3.6068322108954221e-01  -4.1135678241075602e-01  -4.6137237237796824e-01  -4.4278551589176401e-01  -4.7083380298170519e-01  -4.1126379903664162e-01  -4.3826701092415521e-01  -4.0256857451159483e-01  -4.2662585792119639e-01  -3.7852189776126977e-01  -3.5457465169135360e-01  -4.6054243170254305e-01  -3.8586919048586737e-01  -4.1352093495835157e-01  -3.4936067558730394e-01  -3.2203123023375008e-01  -3.0714217669422861e-01  -3.8601542701934340e-02  -2.6528786853146497e-01  -2.3448705217509677e-01  -4.5262258282320189e-01  -4.4999702044425893e-01  -4.5465449044620299e-01  -4.4299490556621401e-01  -4.6574089367293986e-01  -2.4881922010328725e-01  -3.0125252326256519e-01  -3.2481834905102636e-01  -2.9274846524136394e-01  -3.1608192087997489e-01  -5.3534050854225201e-01  -2.8744434290045151e-01  -3.5008214097986262e-01  -3.3954597841098133e-01  -2.6638881074513804e-01  -3.7396377295165356e-01  -3.2253791120362724e-01  -3.6324025402125443e-01  -3.8565095362638818e-01  -3.4715315606785668e-01  -3.0970953034748105e-01  -2.9235398419368569e-01  -2.8207900731435159e-01  -3.3834507517586665e-01  -9.2215542257247790e-02  -2.8774934795690221e-01  -3.2053754984402982e-01  -2.7640481049553556e-01  -3.1378872747163095e-01  -3.8670535080222446e-01  -4.5636005685973596e-01  -2.6693168041919041e-01  -2.9171860012915252e-01  -3.0824998465449704e-01  -2.6838436680884886e-01  -2.0612432794982549e-01  -2.2350289886364866e-01  -1.7910259225201125e-01  -5.3603617495788225e-01  -2.5302193860355965e-01  -2.6565025398373193e-01  -3.2851340915701621e-01  -4.7597563474782406e-01  -4.8808388909391132e-01  -4.9892311144369100e-01  -5.0881978461703548e-01  -5.1347739185828600e-01  -5.2143949044424975e-01  -5.1653028831724501e-01  -5.2003259429688886e-01  -5.1195097020338975e-01  -5.1365573568013956e-01  -5.0582174402311375e-01  -5.0226276290945326e-01  -4.9671034391970165e-01  -3.3245098242290677e-01  -3.5756418693497694e-01  -3.0062534795181023e-01  -4.5856627961910652e-02  -5.1059965538902310e-02  -4.6836582837497642e-01  -4.8729364822744586e-01  -4.0043366504879102e-01  -3.7488857522678459e-01  -3.2769496545011190e-01  -3.4850027283569318e-01  -3.8810871881206466e-01  -3.6464659809045435e-01  -4.0185922624642401e-01  -3.7704815887098375e-01  -4.0377495323791962e-01  -3.8343630775679860e-01  -3.5046411644301739e-01  -3.5869920412641454e-01  -3.8659183526553020e-01  -3.6228166973269316e-01  -3.8503897999042774e-01  -3.5999595604800544e-01  -3.7839355495295551e-01  -3.5097999800407348e-01  -3.2779730073253521e-01  -3.6601887332059363e-01  -3.3439931645799753e-01  -3.1747775999998656e-01  -3.4672381522809920e-01  -3.0907122455864877e-01  -2.9616099055449230e-01  -4.0572410722752061e-01  -3.8838564667579278e-01  -3.1508023528456197e-01  -4.7752559157849811e-01  -2.3733711888001074e-01  -2.1664492941316177e-01  -2.2632310242864681e-01  -2.3080376559287824e-01  -3.1887952948833093e-01  -3.5635892926172746e-01  -2.7216146147151038e-01  -3.7502659516020059e-01  -3.4315757906002631e-01  -2.3356378622018514e-01  -4.9051675769365555e-01  -4.1889185632032871e-01  -4.1776583583454874e-01  -5.0577641895306502e-01  -5.2680176668587242e-01  -2.4597002982412966e-01  -1.6587346823420882e-01  -4.7893370565939758e-01  -3.2111298489491291e-02  -3.2143974659452029e-01  -2.8784545156588770e-01  -2.5570867795778118e-01  -2.2108305523595936e-01  -3.4357613079830629e-01  -4.5575975530114032e-01  -3.0195476830158302e-01  -2.5955795969237483e-01  -2.7912761268477143e-01  -2.1248099390303932e-01  -2.1842506190150709e-01  -1.6910335328398035e-01  -1.6233767999340731e-01  -1.8602819820691219e-01  -1.6090077873690381e-01  -1.6808526054645903e-01  -2.3448521874158543e-01  -2.0744590118336298e-01  -2.7223104047334418e-01  -1.9540172012365908e-01  -2.5859412581246322e-01  -1.8122131738014985e-01  -2.4426562805046023e-01  -4.0004258835336315e-01  -4.1055495702453793e-01  -3.9559872594575130e-01  -4.2051681650022371e-01  -4.3001608810279768e-01  -4.3841245738529572e-01  -4.4773129780798504e-01  -4.5351891025484298e-01  -4.6345159898707633e-01  -4.6767264691784033e-01  -4.7719526824801850e-01  -4.8093881624290785e-01  -4.8936461546655818e-01  -4.9336466150751768e-01  -5.0124517820008296e-01  -5.0540182435772196e-01  -5.1160603242478830e-01  -5.1645516586816986e-01  -5.1983532550579081e-01  -5.2445607452595544e-01  -5.0383881493232341e-01  -5.1958506082198752e-01  -5.2761621886498733e-01  -5.3046991544145217e-01  -5.3398073513440469e-01  -3.2178327605005175e-01  -2.3200642036789254e-01  -3.8335861506489788e-01  -2.1916545298865445e-01  -4.8313099910524149e-01  -4.4015700751001680e-01  -2.7917691696281066e-01  -2.8840718101023266e-01  -1.7645643196718314e-01  -3.4374227593783979e-01  -4.5585224494698667e-01  -1.9518168351149925e-01  -2.0941858755051851e-01  -4.3111606978404421e-01  -4.2628219699538089e-01  -3.5379921040058454e-01  -3.9759097256548326e-01  -4.4293687473273269e-01  -1.1217350789136504e-01  -2.7123648993377120e-01  -1.8583490869002592e-01  -1.0689941131228041e-01  -5.1010539970755753e-01  -1.1087897304585209e-01  -4.9271046313645678e-01  -2.1552665656321757e-01  -2.3880445966286656e-01  -2.9067249331382283e-01  -2.5052414212264940e-01  -1.7051962188433098e-01  -5.1195838849346709e-01  -2.6516976633909339e-01  -4.9708023764877601e-01  -4.8334288432510097e-01  -5.3113592927029418e-01  -4.4296892636185492e-01  -1.7433366601267938e-01  -1.1264084427598189e-01  -5.1347250341273931e-01  -1.6354108385141378e-01  -2.3623863544444687e-01  -1.5443368340371261e-01  -5.3510508976073323e-01  -5.2466096873872881e-01  -5.2286569615885736e-01  -4.2915642733560572e-01  -4.2282765356569374e-01  -4.2345403919538488e-01  -1.7857938114668978e-01  -2.1445993250398673e-01  -1.4269336436894431e-01  -1.8282236170036567e-01  -4.1618523445868055e-01  -1.6669526713143834e-01  -2.2732274588545623e-01  -1.4881720055527098e-01  -2.0530581947599957e-01  -2.7042262312397941e-01  -2.4283465184660202e-01  -1.7910878247462034e-01  -2.0501445791976075e-01  -2.6252716763435768e-01  -1.4499879374816615e-01  -2.1236028528994955e-01  -2.6423871948025890e-01  -1.9804620018953936e-01  -2.4761347644590467e-01  -3.1245872849045908e-01  -5.2069606149498304e-01  -3.7735008000354697e-01  -3.7756029167076710e-01  -3.8648084011513767e-01  -3.6561221358417673e-01  -4.2998781204327674e-01  -3.9985085171452900e-01  -4.0978736548257233e-01  -4.0212433241829904e-01  -3.9280911660197704e-01  -4.0004910214320255e-01  -4.0905877792176848e-01  -4.7974170685623252e-01  -2.6107331282559632e-01  -2.1728954487975419e-01  -2.6124515803473558e-01  -2.2770519382655197e-01  -1.6545832862334775e-01  -4.6460124935237951e-01  -4.9935826133908301e-01  -6.2096960497452773e-02  -1.6717084880512736e-01  -3.7678319985360620e-01  -1.3355161679695923e-01  -2.1336074511478914e-01  -1.9457717740464944e-01  -1.1442758133308946e-01  -1.7484744687832326e-01  -2.3443610177324450e-01  -1.9937230354612365e-01  -1.4364321310667894e-01  -8.1119348633968136e-02  -2.5869616991008204e-01  -4.7431866743588946e-01  -4.9013447645872754e-01  -4.8857689916536795e-01  -4.6067668403929157e-01  -1.6893048830506832e-01  -3.9316304198461616e-01  -3.3832684791295398e-01  -3.3979171247569673e-01  -4.2927774826885051e-01  -4.6976382349383899e-01  -4.8349882724708726e-01  -4.5032482027467691e-01  -4.8408565896236605e-01  -4.8409988329601589e-01  -5.0856574294401835e-01  -5.0610738318855553e-01  -5.0733569175483961e-01  -4.8123846333978604e-01  -5.0402314158328276e-01  -5.2485985002575186e-01  -4.7600966960483632e-01  -5.2942109820446670e-01  -5.1385482243995562e-01  -5.2776717389412076e-01  -6.4066189512013830e-02  -1.3906039803798206e-01  -5.0505444618992146e-01  -3.9642242486162937e-01  -4.3587245542002179e-01  -1.0002125983569191e-01  -2.9947260418352178e-01  -6.6193932480191897e-02  -7.1823158583362759e-02  -3.1098237063202366e-01  -2.9199670885120715e-01  -1.3368711220497601e-01  -1.3014231718360827e-01  -1.9951002617018632e-01  -4.0515882483354732e-01  -4.1793707176216216e-01  -4.1254637989685500e-01  -4.1473673381536147e-01  -4.1927198082661027e-01  -5.1846813995846608e-01  -1.0809069372794326e-01  -1.6900017214023846e-01  -1.5452685229559468e-01  -4.4048719111839829e-01  -1.4148222003984617e-01  -2.4036062850007986e-01  -2.2460899371124898e-01  -1.0932500297406522e-01  -5.2670118329108218e-01  -2.2695836506256648e-01  -4.4655500735980258e-01  -5.2753104615193702e-01  -5.9346156663239419e-02  -6.4402824479092416e-02  -6.5070506361633168e-02  -2.9981875263447821e-01  -4.8779760488817359e-01  -7.1572573170977594e-02  -3.8854743219531473e-01  -2.8619260235572425e-01  -1.4798088974382087e-01  -3.5109488091596663e-01  -4.8989053669475209e-02  -3.2070933720425204e-01  -2.2144375786088671e-01  -7.2181061642442729e-02  -4.6126455293689417e-02  -1.2603841071351204e-01  -9.5982310738825544e-02  -6.7507611091931125e-02  -4.4416307019801127e-01  -3.7618924046091784e-01  -3.2649313980590439e-01  -4.9385522185628167e-01  -3.9155352497720208e-01  -3.6555188915962163e-02  -9.6794918433187035e-02  -1.3267874639542679e-01  -4.0068373613320502e-01  -3.3807345346409579e-01  -4.9829917291127440e-01  -4.3851276308853604e-02  -1.4966189498180935e-01  -1.3141215727015151e-01  -1.4977824475138463e-01  -2.3962095888504795e-01  -3.0583662928342648e-01  -5.7298025494213103e-02  -4.5604601462417532e-01  -3.0458762481022578e-01  -5.3279509119310697e-01  -5.1798716823850322e-01  -4.5177364790508440e-01  -2.4272374633342098e-01  -3.6241934889608496e-01  -1.9284307504224268e-01  -4.7267533076980600e-01  -3.2816045939168037e-01  -3.4291440918582838e-01  -5.2604711569600515e-01  -1.6112282303828468e-01  -2.1003153157758392e-01  -3.0192027663414966e-01  -2.8416791725622126e-01  -4.2530607718717017e-01  -