<?xml version="1.0"?>
<VTKFile type="UnstructuredGrid"  version="0.1"  >
<UnstructuredGrid>
<Piece  NumberOfPoints="1143" NumberOfCells="2188">
<Points>
<DataArray  type="Float64"  NumberOfComponents="3"  format="ascii">0 0 0  0 1 0  1 1 0  1 0 0  1.1 -0.1 0  -0.1 -0.1 0  1.1 1.1 0  -0.1 1.1 0  0.5508808754940194 0.5265151015531652 0  0.6070070060982071 0.6967562029491872 0  0 0.9499999999997918 0  0 0.8999999999995836 0  0 0.8499999999996529 0  0 0.7999999999999998 0  0 0.7500000000003466 0  0 0.7000000000006934 0  0 0.6500000000010401 0  0 0.6000000000013869 0  0 0.5500000000017335 0  0 0.5000000000020587 0  0 0.4500000000018723 0  0 0.4000000000016644 0  0 0.3500000000014564 0  0 0.3000000000012483 0  0 0.2500000000010403 0  0 0.2000000000008322 0  0 0.1500000000006241 0  0 0.100000000000416 0  0 0.05000000000020799 0  0.04999999999989965 0 0  0.09999999999981467 0 0  0.1499999999997036 0 0  0.1999999999995579 0 0  0.2499999999994121 0 0  0.2999999999992664 0 0  0.3499999999991206 0 0  0.3999999999989749 0 0  0.4499999999988292 0 0  0.4999999999986943 0 0  0.5499999999988151 0 0  0.5999999999989468 0 0  0.6499999999990784 0 0  0.69999999999921 0 0  0.7499999999993417 0 0  0.7999999999994734 0 0  0.8499999999996051 0 0  0.8999999999997368 0 0  0.9499999999998684 0 0  1 0.04999999999989965 0  1 0.09999999999981467 0  1 0.1499999999997036 0  1 0.1999999999995579 0  1 0.2499999999994121 0  1 0.2999999999992664 0  1 0.3499999999991206 0  1 0.3999999999989749 0  1 0.4499999999988292 0  1 0.4999999999986943 0  1 0.5499999999988151 0  1 0.5999999999989468 0  1 0.6499999999990784 0  1 0.69999999999921 0  1 0.7499999999993417 0  1 0.7999999999994734 0  1 0.8499999999996051 0  1 0.8999999999997368 0  1 0.9499999999998684 0  0.9499999999997918 1 0  0.8999999999995836 1 0  0.8499999999996529 1 0  0.7999999999999998 1 0  0.7500000000003466 1 0  0.7000000000006934 1 0  0.6500000000010401 1 0  0.6000000000013869 1 0  0.5500000000017335 1 0  0.5000000000020587 1 0  0.4500000000018723 1 0  0.4000000000016644 1 0  0.3500000000014564 1 0  0.3000000000012483 1 0  0.2500000000010403 1 0  0.2000000000008322 1 0  0.1500000000006241 1 0  0.100000000000416 1 0  0.05000000000020799 1 0  -0.1 1.05000000000004 0  -0.1 1.000000000000079 0  -0.1 0.9500000000001624 0  -0.1 0.9000000000003032 0  -0.1 0.850000000000444 0  -0.1 0.8000000000005848 0  -0.1 0.7500000000007256 0  -0.1 0.7000000000008665 0  -0.1 0.6500000000010508 0  -0.1 0.6000000000012352 0  -0.1 0.5500000000014196 0  -0.1 0.500000000001539 0  -0.1 0.4500000000014195 0  -0.1 0.4000000000013 0  -0.1 0.3500000000011588 0  -0.1 0.3000000000010178 0  -0.1 0.2500000000008986 0  -0.1 0.2000000000007579 0  -0.1 0.1500000000006174 0  -0.1 0.1000000000005272 0  -0.1 0.05000000000040083 0  -0.1 2.671196597248127e-13 0  -0.1 -0.0499999999998666 0  -0.0500000000000906 -0.1 0  -1.730560139634463e-13 -0.1 0  0.04999999999975802 -0.1 0  0.09999999999961506 -0.1 0  0.1499999999994613 -0.1 0  0.199999999999302 -0.1 0  0.2499999999991446 -0.1 0  0.2999999999990088 -0.1 0  0.3499999999988296 -0.1 0  0.3999999999986936 -0.1 0  0.4499999999985143 -0.1 0  0.4999999999984002 -0.1 0  0.5499999999985247 -0.1 0  0.5999999999986493 -0.1 0  0.6499999999987955 -0.1 0  0.6999999999989417 -0.1 0  0.7499999999990659 -0.1 0  0.7999999999992116 -0.1 0  0.8499999999993573 -0.1 0  0.8999999999994526 -0.1 0  0.949999999999584 -0.1 0  0.9999999999997226 -0.1 0  1.049999999999861 -0.1 0  1.1 -0.0500000000000906 0  1.1 -1.730560139634463e-13 0  1.1 0.04999999999975802 0  1.1 0.09999999999961506 0  1.1 0.1499999999994613 0  1.1 0.199999999999302 0  1.1 0.2499999999991446 0  1.1 0.2999999999990088 0  1.1 0.3499999999988296 0  1.1 0.3999999999986936 0  1.1 0.4499999999985143 0  1.1 0.4999999999984002 0  1.1 0.5499999999985247 0  1.1 0.5999999999986493 0  1.1 0.6499999999987955 0  1.1 0.6999999999989417 0  1.1 0.7499999999990659 0  1.1 0.7999999999992116 0  1.1 0.8499999999993573 0  1.1 0.8999999999994526 0  1.1 0.949999999999584 0  1.1 0.9999999999997226 0  1.1 1.049999999999861 0  1.05000000000004 1.1 0  1.000000000000079 1.1 0  0.9500000000001624 1.1 0  0.9000000000003032 1.1 0  0.850000000000444 1.1 0  0.8000000000005848 1.1 0  0.7500000000007256 1.1 0  0.7000000000008665 1.1 0  0.6500000000010508 1.1 0  0.6000000000012352 1.1 0  0.5500000000014196 1.1 0  0.500000000001539 1.1 0  0.4500000000014195 1.1 0  0.4000000000013 1.1 0  0.3500000000011588 1.1 0  0.3000000000010178 1.1 0  0.2500000000008986 1.1 0  0.2000000000007579 1.1 0  0.1500000000006174 1.1 0  0.1000000000005272 1.1 0  0.05000000000040083 1.1 0  2.671196597248127e-13 1.1 0  -0.0499999999998666 1.1 0  0.6430177537157995 0.684982367223409 0  0.6783979547187021 0.6639552557713438 0  0.7066726313052968 0.630988752327579 0  0.721530575924006 0.5921299023485049 0  0.7304986151515275 0.5543565641936751 0  0.7333978926762428 0.5169685439791061 0  0.7328293823334978 0.4802498552162746 0  0.727106552145397 0.4444950803535132 0  0.7177126095011046 0.4095722890672527 0  0.7061227451687138 0.3747043678123519 0  0.6901439246427318 0.340633423586674 0  0.6675568269740362 0.3085178459444566 0  0.6368053663433242 0.2814139323246134 0  0.5995070746895806 0.2621268514732442 0  0.5602077254471972 0.2553597383791562 0  0.5231868797819865 0.25765542510878 0  0.489231811459901 0.265472095318532 0  0.4577067143634046 0.2763083466280074 0  0.4284225543541179 0.2896049406611039 0  0.4007865025174056 0.3046794933776935 0  0.3749480160617282 0.3216447667787646 0  0.3494508707030867 0.3392768814601784 0  0.3243182255982215 0.3582480113550609 0  0.3009888483071376 0.3799732698065884 0  0.2789099918403955 0.4037537111267429 0  0.2582853553425956 0.429819320371697 0  0.2395833767424429 0.4589961818386055 0  0.2245315396452107 0.4929700529278233 0  0.2263016585357939 0.5358150915290141 0  0.2449238421101173 0.5712583674316731 0  0.2692961879679221 0.5980959607042384 0  0.2956507897528243 0.620284714093879 0  0.3235427658270247 0.6390759998737838 0  0.3514231872940454 0.6562081120839077 0  0.3807194066009074 0.6701320432091693 0  0.4108707453685696 0.6811435070925216 0  0.4416383873657574 0.6900173976786754 0  0.4731939145255933 0.6951325969449154 0  0.5048296153671081 0.699333180503009 0  0.5375524733245637 0.7020394105559197 0  0.5715277429556282 0.7018960134934334 0  0.3757886589351195 0.6253995253658299 0  0.3561318443648145 0.3828536509122488 0  0.6482999104847491 0.3411467808572496 0  0.5210687938092387 0.2955857239549958 0  0.2873335282223041 0.4485828509406991 0  0.6520716388588412 0.640037145723734 0  0.4080596427738181 0.3435500945553006 0  0.4343647793269283 0.6475657348167705 0  0.3199579419822421 0.5951686000297972 0  0.4609966111553594 0.3153673300387946 0  0.6914770336652725 0.433604547462657 0  0.7011465171541843 0.5018578715511275 0  0.693390134038145 0.5731102765552208 0  0.2699151395449377 0.5487898452965889 0  0.590876441629741 0.6721082818629037 0  0.4959493940743971 0.6600227933652724 0  0.5834321143370971 0.2906571337083095 0  0.2559433070128627 0.5036608868139087 0  0.3822501756286457 0.3638555884920968 0  0.3884897192219117 0.4073273791738554 0  0.3621151660430516 0.4276488860661771 0  0.3933377827155717 0.4512041012729757 0  0.4216224188699021 0.4292744522622082 0  0.4250600163215634 0.4788674239583816 0  0.3670690374591074 0.4729417022426786 0  0.4596842150748844 0.4547013913820845 0  0.4584300423399885 0.5178723681558683 0  0.4203028431548869 0.5266024291872689 0  0.4513568204376812 0.4051514486841439 0  0.4903633598726329 0.4274440281091726 0  0.4621353151136893 0.5723550306146056 0  0.4263387961665193 0.5921616583625893 0  0.4822651110564235 0.3829301026598396 0  0.5176124904528288 0.401213350423816 0  0.5104981743792689 0.360591546267351 0  0.5479684552348895 0.3764346566840737 0  0.5643100640506233 0.4220780861523039 0  0.594581192944232 0.3919563440326258 0  0.5946702382114123 0.4484596234100575 0  0.577798395947676 0.3502806961818377 0  0.6291437864997849 0.4166309496113492 0  0.3376938445607365 0.4495168121550938 0  0.3418665827131612 0.4961187251602103 0  0.3696519029691178 0.5186998880624348 0  0.3428743778340503 0.5384671629445672 0  0.3116061266172555 0.5154639669156724 0  0.3723350502230171 0.5695170896411847 0  0.6147597382384257 0.3582693519920396 0  0.4470828440267782 0.3580071387906983 0  0.5364467018149974 0.3359665455813906 0  0.3948138265622451 0.4982138549342451 0  0.3317163380843123 0.4019895923804027 0  0.3473313102363988 0.6122203154101569 0  0.4039736529755593 0.6348422306256636 0  0.4164106443205404 0.3873372596146989 0  0.4639097803946335 0.6553239780625727 0  0.486775905110875 0.6209762992951233 0  0.5186141923773128 0.6255933538732495 0  0.5079314817730881 0.5854932067806586 0  0.5426191016592753 0.5908837761772819 0  0.5951844597579201 0.5633704268497776 0  0.5777350315452593 0.6080090624779217 0  0.5994797611817951 0.5117698140715385 0  0.632222914519289 0.5384059883325065 0  0.6291054358135358 0.580936559417887 0  0.6427906554200514 0.4921403313613086 0  0.5278126674421865 0.6645438990551579 0  0.662613974760438 0.5590030828212685 0  0.6575366087393718 0.6001227996890461 0  0.6267986298346457 0.6193167417724086 0  0.3086344038745791 0.426605834715303 0  0.2939772767503921 0.5769806200086257 0  0.5629335604851577 0.3136157323137296 0  0.4989214365870522 0.3244372357234392 0  0.6688102977995527 0.5192341170638191 0  0.6979168619703031 0.4678608174734008 0  0.6639617165290767 0.4588343773816905 0  0.2682964701013881 0.4719945455261776 0  0.281715963875619 0.5125962981669679 0  0.6813861816987714 0.3987053483510946 0  0.562271938614301 0.6674473449856295 0  0.397455725338006 0.5976727098167138 0  0.459436303546819 0.6128746449850131 0  0.6990649306481191 0.5372346564548798 0  0.5541058571580519 0.6313739265692829 0  0.5654367214789422 0.4732195450182141 0  0.3136550082365747 0.4731139122556276 0  0.6734744219264951 0.3681029180769473 0  0.605060788265697 0.3221724779421638 0  0.6432941556261491 0.3850963940353579 0  0.684811845112367
[...]
<PointData  Scalars="u"> 
<DataArray  type="Float64"  Name="u"  format="ascii">-4.0606048439951806e-18  -5.7055520911597703e-18  -2.6137466885248845e-17  -3.5997830236427350e-18  1.7306003139100880e-19  2.3478409049925781e-19  1.6829222165155692e-19  3.2031180571337075e-19  6.1135842846993908e-02  -1.5813394845118664e-01  -1.7057695454332862e-18  9.9584035617506311e-18  -7.1177887598586101e-18  1.1983333689121188e-17  1.5715218770945703e-18  -4.4891227154284835e-17  -8.0877925214326721e-18  1.5013149081362027e-17  3.3494209093609006e-18  -5.5901346745757528e-18  3.4062805315588901e-17  -1.7100153036731979e-18  5.4489227053407947e-17  6.8937264046948975e-18  -2.9701361114936698e-18  3.8826478076319127e-18  3.9758220581180392e-18  -6.4476508425881489e-19  -1.7203332438572709e-18  3.1566947080536562e-18  -4.0880460764639179e-17  -2.0460627334376806e-17  1.7047671411350104e-17  0.0000000000000000e+00  1.5903790093094356e-17  -5.0455177531597593e-17  -8.9326357300179109e-17  2.8408718213269879e-17  -7.7554139160927579e-18  -1.3975382207671294e-17  1.8795955596723077e-17  -7.4960727866447973e-17  -4.3864293876277307e-17  -5.9104648609747544e-18  -4.2273963134794105e-17  -7.3387952820130858e-18  -5.5186821685082013e-18  9.5633576547500636e-18  3.4775503426382507e-17  -2.8316147110486444e-17  -1.2490804160667638e-16  1.1965913796830865e-16  2.9449201724489301e-17  1.6752751782850531e-17  9.0018013702933046e-18  4.5781945056929470e-16  1.4608239961536189e-16  -1.9785894077383408e-16  1.7861092491863633e-16  -2.7709641909541514e-17  -1.0633279181354278e-17  -1.1441402425144347e-17  1.4709158839916927e-16  -1.0424030902350060e-16  -1.0612530408051993e-16  7.9030092961960146e-17  4.2181912589995336e-18  -5.6255688205963815e-17  -1.4559642300387875e-17  -2.0599428937709948e-17  1.6473572703543912e-17  1.1855672881436619e-17  -1.5629539282341033e-16  -3.0653871059389021e-17  -1.9421139293429591e-16  1.7698790862555192e-16  -3.0244272200578076e-17  -1.8027150729009631e-16  1.7795578176962476e-17  3.7637644707759532e-18  1.4594318425141545e-16  -2.9934810724683752e-17  -2.9501730713361316e-17  -9.3579754282715887e-17  -5.8480498755843935e-18  -2.4121806869815704e-17  -5.4847720111440730e-20  -7.8769567702693292e-19  8.5875912742938720e-20  4.3155652523062596e-19  -7.4527731125588835e-19  3.6614052930182890e-18  -2.0594050641119078e-18  -1.0275690637111434e-17  -6.0316110068471614e-19  1.9599086160084630e-18  8.1932975518533638e-19  1.5143102824343172e-18  2.5949403477796408e-18  2.6355734822663116e-18  5.7143347311814451e-18  -4.3141772411592190e-19  -3.8515936241497710e-19  1.6904273832686705e-18  -7.1239894332256924e-19  -1.2259757872253482e-19  -5.1444569270171103e-19  -3.9827573297276330e-19  -9.4591699740735817e-20  -3.1640434536783658e-19  1.8798810092615091e-19  -7.4474147038340073e-19  -5.0362921009188277e-18  -1.9606459102403926e-18  -1.1510572562504008e-18  -7.2245416719631693e-19  -5.5658650805787984e-19  -7.2485542935152636e-18  -1.0082695589782166e-17  1.0179996874063541e-18  -9.1333855906505650e-19  -1.9069312802048088e-18  2.2644155314216879e-19  -8.9706096657953400e-18  -6.2320205314496938e-18  -2.2306021661574101e-18  -4.2341636068940788e-18  -2.6183815287389339e-18  -3.4760486191674805e-20  6.2494857716219107e-19  1.3651231063039641e-20  -2.7859268979420565e-19  2.8496206390409124e-20  -4.5695074934383088e-19  -2.0592177913419290e-18  -3.6208504325925899e-18  -3.8010408200422531e-18  5.9405839451557368e-19  3.8905921810109340e-18  2.4413269958187851e-18  1.0743118080039309e-19  1.0990965704597612e-18  -1.5300061439402177e-19  -1.0519579536901434e-18  -2.0341273564543467e-18  -3.6546851656444674e-18  -2.5124465476639622e-18  -1.0957435175249125e-18  -9.0134691994179135e-19  1.2671672747553308e-18  9.3799954037658529e-19  -5.1767392675049458e-19  -1.0582715146610140e-19  5.8139175564111966e-20  -1.7937502461364032e-19  -1.2912101799919476e-19  -9.5014568289346790e-20  -1.5478196334045491e-19  -1.8502549410744178e-18  -2.1591501857099752e-18  1.4094833389932663e-18  2.3587880177851759e-18  -6.3190568145784711e-19  -3.3724345105387333e-18  -5.7074282857390920e-18  -8.4953146205419860e-19  -3.0175068906354741e-18  -1.1771325907672845e-18  1.4951976239390587e-18  8.6715180961042458e-19  -7.4758752285549493e-19  -4.2764210798895458e-18  -3.0030659844405062e-18  -7.0379065165820173e-19  4.2439721526628883e-19  1.0176472659780598e-18  -2.1659317153107891e-20  -4.1480451119847501e-19  -1.6236174118145544e-01  -1.6383034719737377e-01  -1.5881104753515987e-01  -1.4902928008515340e-01  -1.4163693413872633e-01  -1.3598750195621107e-01  -1.3352620857721126e-01  -1.3258749179925838e-01  -1.3368056865080161e-01  -1.3745866523345571e-01  -1.4198796946510850e-01  -1.4510696640632328e-01  -1.4433545715957893e-01  -1.4168785055938254e-01  -1.3688330548946998e-01  -1.3308519530701779e-01  -1.3038039212376762e-01  -1.2965211731660437e-01  -1.2958174851975690e-01  -1.3015484697832411e-01  -1.3079170723398653e-01  -1.3242859659627856e-01  -1.3416141402601425e-01  -1.3487543092201690e-01  -1.3546782358729914e-01  -1.3635275233726732e-01  -1.3816810043334937e-01  -1.4139436195913307e-01  -1.4447230696622593e-01  -1.4739209393386324e-01  -1.4821182149541848e-01  -1.4875571568705057e-01  -1.4855520074566267e-01  -1.4870181870294347e-01  -1.4820486231080765e-01  -1.4696588802339300e-01  -1.4603157457222146e-01  -1.4487066177586047e-01  -1.4589995692413088e-01  -1.4894262711446307e-01  -1.5335499468924949e-01  -6.4959697464277807e-02  -5.0960697197182984e-02  -7.3171556056604262e-02  -6.1830325889735624e-02  -7.1116888842326573e-02  -9.3966006979580435e-02  -4.9749944222069867e-02  -6.0813754987734378e-02  -7.6043283483493443e-02  -5.2340800488405177e-02  -6.4318507982368017e-02  -6.7539387798795605e-02  -8.0798849804015554e-02  -8.8649353156925154e-02  -9.3361812596114133e-02  -6.2007384192154527e-02  -7.9787901693857702e-02  -9.0969321000620273e-02  -4.7258685017401998e-02  1.6952215941800060e-03  -5.9362191008242053e-03  3.1712213298259899e-02  3.9194517291941532e-02  5.6469806738673328e-02  1.8210840422633132e-02  6.6359838078949421e-02  6.5585757630476443e-02  4.6599796941111916e-02  3.8917828871674394e-02  6.1524508090244096e-02  3.5733642473476164e-02  5.6783441156916898e-03  3.1421242318573836e-02  4.7359806943739854e-02  1.4975438805171959e-02  2.4975341256722391e-02  4.8130248111554155e-02  1.5659426091405675e-02  4.0000557320318285e-02  -9.0958156596377144e-03  1.1487367176248424e-03  -1.6555047262484270e-02  -8.7089361106772439e-04  1.7843877891445589e-02  -1.0616505788016581e-02  -3.2236315974186386e-02  -6.4087027125714338e-03  -2.7181924576331746e-02  -6.8063039016539647e-03  -1.1961854937744978e-02  3.8724502589708616e-02  -5.6885482352548387e-02  -7.0773558264541611e-02  -5.9318697727529790e-02  4.9568932242403732e-03  -6.1574852417449651e-02  -9.6348241127708987e-03  -1.3707594823194140e-02  3.1423244872551992e-02  2.1607832849023748e-02  1.9670004747690765e-02  -7.7141031233459046e-03  3.8971618499669930e-02  5.1185287585048559e-03  -1.7200605348415880e-02  5.2665095012334245e-03  -6.7773856220362347e-02  -3.7434247123038181e-02  -6.0968980506680356e-02  -5.1599101435357293e-02  -6.1425388364510558e-02  -8.3791820366723335e-02  -4.5021812799611760e-02  -2.8324866484141665e-02  -2.9557016623473119e-02  -6.4305581030173739e-02  -2.2957056426608984e-02  -8.2063715446935220e-02  -6.5567490206036291e-02  -6.7684888190906345e-02  -7.7516859175853867e-02  -1.7803336683740043e-02  -5.2803125733123088e-03  -7.2038184227187302e-02  -2.6907520878837399e-02  6.1620013920087667e-02  -3.2380384702141704e-02  -7.7768844700361620e-02  -5.6179571335987492e-02  -3.2607066469834960e-02  -1.0117888542277860e-01  6.1128408694696677e-02  7.6697655187130898e-02  -6.0894120070609264e-02  -7.9276584920005708e-02  -8.9804943832924602e-02  -4.7445987491747790e-02  2.7442871714162303e-02  -4.5542837098763176e-03  -3.0880643463557299e-02  1.2893202955373462e-02  -3.4154784216589795e-02  -1.0342034639433186e-01  -9.1693763370659390e-02  -5.3750628800576801e-02  -3.9698299997254632e-02  2.7154583682656854e-02  3.7842013288540151e-02  -1.5629114293414778e-02  6.5985977317345346e-02  -7.0799981455125033e-02  3.1001151793600672e-02  2.4900127458469600e-02  -9.3603839744253486e-02  -4.8256798949671720e-02  -6.1140890911905742e-02  1.9138688729549387e-02  2.4802948199495516e-02  -1.9277798644076313e-01  -1.8277945327592762e-01  -1.8347969703773431e-01  -1.7975753426595126e-01  -1.7553443983657260e-01  -1.6866191341758910e-01  -1.6860646743493207e-01  -1.6409805815685904e-01  -1.9178639631047989e-01  -1.6495938714516833e-01  -1.7582468445850791e-01  -1.7296097272723424e-01  -1.6252606209399947e-01  -1.7451605995349999e-02  -3.3003368781573172e-02  -3.1444275016280859e-02  -1.4829727388452382e-02  -5.2695803165069978e-02  -2.9791829092596193e-02  -1.9128470855554212e-02  -2.0903328651319129e-02  -5.8797197632993473e-02  -1.3324248476726783e-02  -6.3398243618282557e-02  -1.2688050171681781e-02  -2.9937740969194736e-02  -2.6521356124476907e-02  -1.6632401333121868e-01  -1.7830975817425257e-01  -5.7296090367874981e-02  -5.7361668927326796e-02  -1.8425344712799677e-01  -5.3283266587583797e-02  -4.6172635925491770e-02  -2.6733170215143171e-02  -2.6251460010935423e-02  -1.1175791650362829e-02  -1.5474848514343989e-02  -2.0329055002372403e-02  -2.1028551416141114e-02  -3.6255826866035928e-02  -2.9595291803692116e-02  -2.2350188199196094e-02  -1.6849387002073563e-01  -1.7447735676839410e-01  -1.7926978788185288e-01  -1.8018329757417498e-01  -1.8549385109440514e-01  -1.7621411978782595e-01  -1.7993989643283839e-01  -1.7602895095446441e-01  -1.7602524770026268e-01  -1.7167387757534441e-01  -1.6474063542073283e-01  -1.7134431769316558e-01  -1.5997597513720521e-01  -1.6989495294072279e-01  -1.5705350580303762e-01  -1.7065016137507238e-01  -1.5590021070941817e-01  -1.7325613758549319e-01  -1.5612308837930255e-01  -1.7659875755955778e-01  -1.5652269872651703e-01  -1.7889612402096697e-01  -1.9153190860496219e-01  -1.9491517892489746e-01  -2.0082426579644613e-01  -2.0453082899128874e-01  -1.9502243847581352e-01  -2.0358581218918886e-01  -1.9044411620668861e-01  -2.0807809337749059e-01  -2.0519391000234727e-01  -2.0606211094186577e-01  -2.0077614787421094e-01  -1.9491750245722647e-01  -1.8680456268466952e-01  -1.9159319647734674e-01  -1.7347805999056359e-01  -1.7804330232434307e-01  -1.5646665073654811e-01  -1.7965878644155611e-01  -1.5138261796980357e-01  -1.6108780888618782e-01  -1.7544727421453726e-01  -2.0440297645857455e-01  -1.9991393622936246e-01  -1.3448209663862920e-01  -1.8467021542503639e-01  -1.9112108278402387e-01  -1.9104507289524045e-01  -1.9681891267758572e-01  -1.9662492603924375e-01  -2.0053235507388292e-01  -1.9955698216384801e-01  -1.9980060726913049e-01  -1.9694081540607308e-01  -1.9272935587164089e-01  -1.9389171419761053e-01  -1.8686884321704844e-01  -1.9071752141953058e-01  -1.7739780958840767e-01  -1.8226392021184007e-01  -1.8267942011226332e-01  -1.6581768199327138e-01  -1.7273089124282445e-01  -1.8108791045736691e-01  -1.6583890233273799e-01  -1.6752319888396527e-01  -1.5264336574424492e-01  -1.6324081127153536e-01  -1.6088286589871328e-01  -1.7690959445519450e-01  -1.7164766914535695e-01  -1.5403462214272065e-01  -1.6710112263109478e-01  -1.4519176655362434e-01  -1.6287868939309250e-01  -1.8040718119152660e-01  -1.7873357546703372e-01  -1.5833159627445700e-01  -1.7696146203885144e-01  -1.9275874344086558e-01  -1.9327856358068662e-01  -1.7223075484890368e-01  -1.8939876190941055e-01  -2.0585832960718239e-01  -2.0110475961319621e-01  -2.1510216800318643e-01  -2.0642008119774510e-01  -2.1546204925800963e-01  -1.8992253797587477e-01  -2.0346706171892834e-01  -2.0981870572432657e-01  -1.9268708996718126e-01  -1.9756648152795370e-01  -2.1163390142818336e-01  -1.9987149963393269e-01  -2.1081222140417097e-01  -2.0040707082367420e-01  -1.8222322678823866e-01  -1.8529811419836190e-01  -2.0092245742996673e-01  -1.8889108610768224e-01  -2.0189500840927815e-01  -1.9306515656429293e-01  -2.0415634664913856e-01  -1.9794532067398762e-01  -2.0745147536065781e-01  -2.0342091506234963e-01  -2.1142337573162165e-01  -2.0892999181524186e-01  -2.1576889798575385e-01  -2.1393577267438993e-01  -2.1919993083885286e-01  -2.1718133512169593e-01  -2.2063096429847234e-01  -2.1733577690609571e-01  -2.1855309903597719e-01  -2.0626506325820632e-01  -2.1249148644774804e-01  -2.1118781058694028e-01  -1.7969609411441959e-01  -1.8351551125564167e-01  -1.9429597179387426e-01  -2.0660853828790912e-01  -1.9840629403669782e-01  -1.8802130740910236e-01  -1.6384594557367485e-01  -2.1610095556236519e-01  -1.4305343235291287e-01  -1.6669201106150147e-01  -1.7086744851684305e-01  -1.6537844080080369e-01  -1.5472069494689994e-01  -1.4091146190807713e-01  -1.4123499876707968e-01  -1.8970670046269258e-01  -2.1253613661665607e-01  -2.1804119551095638e-01  -2.0681559228975688e-01  -2.1381747914683102e-01  -2.0456693919753963e-01  -1.9713377407548618e-01  -1.8907875868326698e-01  -1.3897798141259582e-01  -1.7658674179466441e-01  -1.6229147849085701e-01  -1.6702491670801708e-01  -2.0929730595618565e-01  -1.9754887223695317e-01  -1.2610465251169770e-01  -1.7910625572348335e-01  -1.9403377914447537e-01  -1.7912654098137554e-01  -1.6692464933275372e-01  -1.8143199838163684e-01  -1.6842985835401689e-01  -1.7354278314840943e-01  -1.6179440464592787e-01  -1.6483663858103592e-01  -1.5472127013848508e-01  -1.6322275774311595e-01  -1.6606058032639251e-01  -1.1571373203940040e-01  -1.1275868502153009e-01  -1.2852640580433797e-01  -1.7297807758067824e-01  -1.5630071868856607e-01  -1.4490227555387958e-01  -1.4965589693638970e-01  -9.9657521217476938e-02  -1.6663886121879118e-01  -1.6891639260549829e-01  -1.1466628754028453e-01  -1.8057795812923247e-01  -1.7058024975948707e-01  -1.9387970102453619e-01  -1.9741245186452000e-01  -1.4517476127571879e-01  -1.3835217757673252e-01  -1.3078004331005255e-01  -1.3413776911458045e-01  -1.7339711476275196e-01  -1.7728377219546637e-01  -1.2565469509689720e-01  -1.3120031655481471e-01  -2.1225387127661460e-01  -2.1226504125508161e-01  -1.2922425769999729e-01  -1.3774939798256655e-01  -1.1722382487833553e-01  -1.3915850254412193e-01  -1.8791193526270591e-01  -1.8714674724911542e-01  -1.9425770753715424e-01  -1.7873713864003041e-01  -1.4496467109418333e-02  -1.2117738682623320e-01  -2.1706736768041757e-01  -1.8990799578754722e-01  -1.6243331488849219e-01  -1.4329531525384895e-01  -1.0603360072531150e-01  -1.9427117530354629e-01  -1.8895888668697555e-01  -1.3146739135933905e-01  -1.4192891458197607e-01  -1.6902065397841959e-01  -2.0937471082929243e-01  -1.7782394165583823e-01  -1.8013916750379597e-01  -1.6367099427211032e-01  -1.2396543426474720e-01  -1.5503906657747321e-01  -1.1350280954672848e-01  -1.4384899390680483e-01  -1.4044709512735698e-01  -1.1423647966419867e-01  -1.9167988746645123e-01  -1.0239191998607611e-01  -1.1824107487933780e-01  -1.8842838370372197e-01  -1.9705149762014532e-01  -1.9293128583944008e-01  -1.4724627202143398e-01  -1.1810802919525949e-01  -8.9591985121429532e-02  -1.4417616616356160e-01  -1.0038186310650557e-01  -2.0617008471689482e-01  -1.8188486095707798e-01  -1.5567825109903069e-01  -1.5118101501651277e-01  -1.2176526624243356e-01  -1.0212658055640776e-01  -8.1245625747378009e-02  -1.4463009949427971e-01  -1.7605282333053288e-01  -1.6831793091189767e-01  -1.4824130968929589e-01  -1.3753590889535885e-01  -1.5495192884257331e-01  -1.2251222198532308e-01  -1.3379327350829817e-01  -9.9923645958563914e-02  -1.2938859042718218e-01  -8.7816189728474714e-02  -1.1369651596025958e-01  -1.1578712992503713e-01  -2.0155873480213074e-01  -1.9783024825927281e-01  -1.8932676908394472e-01  -1.9353618841232051e-01  -1.7681941410883237e-01  -1.9590932456956323e-01  -8.6651830165304825e-02  -1.7081475425299575e-01  -9.6968513678967222e-02  -1.0369522800485374e-01  -7.3859402771610808e-02  -6.3299079024333363e-02  -3.1588008561012654e-02  -3.0421862494265060e-02  -1.7388918554217040e-02  -8.2452148216943480e-02  -1.0035841635987917e-01  -1.0009184620353546e-01  -9.4960702696935309e-02  -9.2144734072710746e-02  -8.7948705695476678e-02  -7.0745274576553746e-02  -9.0124948030312138e-02  -5.1850486833845515e-02  -1.8161156516260335e-01  -1.8731356734228458e-01  -1.7684120128637865e-01  -1.1654206596590090e-01  -1.1803881792791243e-01  -1.7639739807438556e-01  -1.0109843785220819e-01  -1.3185328256748546e-01  -8.6784508419049125e-02  -1.2096479609212173e-01  -7.3629861306461999e-02  -1.1082658574098553e-01  -1.4566974732405841e-01  -1.0928658504021765e-01  -2.0634674230508931e-01  -1.7333794312510620e-01  -1.8209526720443603e-01  -1.5804026250423681e-01  -1.4488019796145793e-01  -1.2185822076266695e-01  -1.1317990162401266e-01  -1.7219238315515917e-01  -1.8650960561877009e-01  -1.8068419711555267e-01  -1.8634237429340292e-01  -1.7789364993698298e-01  -2.0413305121528827e-01  -1.8102482979070966e-01  -1.8096768858478821e-01  -1.7266491917101662e-01  -1.8084590335369075e-01  -1.7350563211849343e-01  -1.8087996311258403e-01  -1.7838173255037049e-01  -1.7869419220709967e-01  -1.7552886343886204e-01  -1.2035320870041723e-01  -7.2625624315558926e-02  -1.6478839905951292e-01  -1.6748565486417458e-01  -1.6761983532268471e-01  -1.7308920509194420e-01  -1.7466164818371255e-01  -9.6645408011304210e-02  -1.6757620569436546e-01  -1.6938920155385062e-01  -1.7456260870449089e-01  -1.8100995781950724e-01  -9.5694818209452748e-02  -1.9487049097080439e-01  -1.0028600276372188e-01  -2.0607312535972949e-01  -1.7751461208123648e-01  -1.6984040404507975e-01  -2.0775083283770976e-01  -2.0002934347772305e-01  -3.9426234895611395e-02  -1.5200160053691597e-01  -1.6979575598830746e-01  -1.8999545916820160e-01  -7.1205742711617157e-02  -3.9856843171255554e-02  -2.1062837023736989e-02  -1.8926849810353510e-01  -1.9614470135810050e-01  -1.9239259267599595e-01  -2.0294557639224420e-01  -1.9864817106893437e-01  -2.0890504823390510e-01  -2.0381764831916860e-01  -1.9089504770609075e-01  -1.9702264682485621e-01  -1.8616682871496143e-01  -1.7542142024302751e-01  -1.8098920608591976e-01  -1.7017598445158508e-01  -1.7322723998903783e-01  -1.8188845063628412e-01  -1.8218683821686291e-01  -1.8576859869185589e-01  -1.8382579964079623e-01  -1.8768984515927320e-01  -1.9856848208951425e-01  -1.6997702151054744e-01  -2.1412949731741640e-01  -2.1885611526122550e-01  -1.2298900421605419e-01  -1.6531557531582461e-01  -2.0553134282893892e-01  -2.0278692175270716e-01  -2.0128223116044824e-01  -1.9477015122659425e-01  -1.9311107790389354e-01  -1.9988369941574294e-01  -1.9201699304551118e-01  -1.8591115200444730e-01  -1.9923719415333146e-01  -1.9120566537914591e-01  -1.9974875464610933e-01  -1.8954411280197375e-01  -2.0060372191297851e-01  -2.0675504784668375e-01  -2.1007457340829877e-01  -1.8241896562615484e-01  -1.8306853153292640e-01  -1.6406286595671080e-01  -1.6229252994268009e-01  -5.7968749221931057e-02  -4.7773512135823974e-02  -2.0425420788473267e-01  -5.7488120906363072e-02  -3.3666234126737936e-02  -1.8229226124153217e-01  -1.7561511035565991e-01  -2.0156088248463094e-01  -3.4753918070544475e-02  -1.9279114118536075e-01  -5.4025765047987943e-02  -2.5720082020962355e-02  -1.8417339100002202e-02  -2.9288287911170288e-02  -8.0077009043583294e-02  -5.5286462552149328e-02  -1.9549347980878574e-02  -7.0360733624397459e-02  -6.4719418990347624e-02  -5.2312733822822283e-02  -1.0208663132956128e-01  -1.7843590820172758e-01  -2.3458444203180769e-02  -2.5216768140617782e-02  -1.8256866657145066e-01  -1.7194278710150682e-01  -1.5097755008889710e-01  -6.1977990743479532e-02  -1.4352658909796649e-02  -6.3958865130277862e-02  -6.8156311712986098e-02  -1.8786457183796540e-01  -1.0109488845433877e-01  -5.1612958516089984e-02  -5.0113139955679273e-02  -5.8923375770758908e-02  -1.1447565617392569e-01  -1.1200232241193693e-01  -5.9937259250140498e-02  -1.1924097511160320e-01  -2.0635767258440121e-01  -1.8033338907822138e-01  -2.928