<?xml version="1.0"?>
<VTKFile type="UnstructuredGrid"  version="0.1"  >
<UnstructuredGrid>
<Piece  NumberOfPoints="1254" NumberOfCells="2410">
<Points>
<DataArray  type="Float64"  NumberOfComponents="3"  format="ascii">0 0 0  0 1 0  1 1 0  1 0 0  0.25 0.5 0  1.1 -0.1 0  -0.1 -0.1 0  1.1 1.1 0  -0.1 1.1 0  0.5 0.5 0  0 0.9499999999997918 0  0 0.8999999999995836 0  0 0.8499999999996529 0  0 0.7999999999999998 0  0 0.7500000000003466 0  0 0.7000000000006934 0  0 0.6500000000010401 0  0 0.6000000000013869 0  0 0.5500000000017335 0  0 0.5000000000020587 0  0 0.4500000000018723 0  0 0.4000000000016644 0  0 0.3500000000014564 0  0 0.3000000000012483 0  0 0.2500000000010403 0  0 0.2000000000008322 0  0 0.1500000000006241 0  0 0.100000000000416 0  0 0.05000000000020799 0  0.04999999999989965 0 0  0.09999999999981467 0 0  0.1499999999997036 0 0  0.1999999999995579 0 0  0.2499999999994121 0 0  0.2999999999992664 0 0  0.3499999999991206 0 0  0.3999999999989749 0 0  0.4499999999988292 0 0  0.4999999999986943 0 0  0.5499999999988151 0 0  0.5999999999989468 0 0  0.6499999999990784 0 0  0.69999999999921 0 0  0.7499999999993417 0 0  0.7999999999994734 0 0  0.8499999999996051 0 0  0.8999999999997368 0 0  0.9499999999998684 0 0  1 0.04999999999989965 0  1 0.09999999999981467 0  1 0.1499999999997036 0  1 0.1999999999995579 0  1 0.2499999999994121 0  1 0.2999999999992664 0  1 0.3499999999991206 0  1 0.3999999999989749 0  1 0.4499999999988292 0  1 0.4999999999986943 0  1 0.5499999999988151 0  1 0.5999999999989468 0  1 0.6499999999990784 0  1 0.69999999999921 0  1 0.7499999999993417 0  1 0.7999999999994734 0  1 0.8499999999996051 0  1 0.8999999999997368 0  1 0.9499999999998684 0  0.9499999999997918 1 0  0.8999999999995836 1 0  0.8499999999996529 1 0  0.7999999999999998 1 0  0.7500000000003466 1 0  0.7000000000006934 1 0  0.6500000000010401 1 0  0.6000000000013869 1 0  0.5500000000017335 1 0  0.5000000000020587 1 0  0.4500000000018723 1 0  0.4000000000016644 1 0  0.3500000000014564 1 0  0.3000000000012483 1 0  0.2500000000010403 1 0  0.2000000000008322 1 0  0.1500000000006241 1 0  0.100000000000416 1 0  0.05000000000020799 1 0  0.2512423061647941 0.4751080382896405 0  0.2549568780650003 0.450463464065915 0  0.2611067986085233 0.4263112062187787 0  0.2696309471236936 0.4028913007147478 0  0.2804446067965471 0.3804365050892322 0  0.293440306626443 0.3591699851827668 0  0.308488889513686 0.3393030972286684 0  0.3254407958459123 0.3210332873266887 0  0.344127549981932 0.3045421290268288 0  0.3643634345900644 0.2899935188528786 0  0.3859473363441576 0.277532047447262 0  0.4086647447019039 0.2672815625275221 0  0.4322898838855364 0.2593439380032868 0  0.4565879565934555 0.2537980615688246 0  0.4813174777220277 0.2506990506208749 0  0.50623267412383 0.2500777045294555 0  0.5310859274396894 0.2519401985100884 0  0.555630234828706 0.2562680222603053 0  0.5796216639118213 0.2630181639114234 0  0.6028217771335632 0.2721235375316357 0  0.6250000013462933 0.2834936498311732 0  0.6459359193853307 0.2970154995248202 0  0.6654214606987447 0.3125547004049084 0  0.6832629691650047 0.3299568168586975 0  0.6992831279176015 0.3490488988865041 0  0.7133227214184995 0.3696412008086709 0  0.7252422178523719 0.3915290670412361 0  0.7349231559191535 0.4144949661541198 0  0.7422693220980935 0.4383106527013762 0  0.7472077069009581 0.4627394357427315 0  0.7496892304232642 0.4875385309598708 0  0.7496892301867037 0.512461473780066 0  0.7472077062136133 0.5372605688175031 0  0.7422693210070724 0.5616893515833331 0  0.7349231544644775 0.5855050378425694 0  0.7252422160814939 0.6084709366360299 0  0.7133227193654776 0.6303588025509503 0  0.6992831256472231 0.6509511041108117 0  0.6832629667039348 0.670043185793705 0  0.665421458092008 0.6874453018955504 0  0.6459359166885593 0.7029845024140263 0  0.6249999986385766 0.7165063517321278 0  0.6028217744473283 0.7278764636804397 0  0.5796216611488455 0.736981837016887 0  0.5556302321289374 0.7437319783558992 0  0.5310859248353553 0.7480598018162771 0  0.5062326716991737 0.7499222955310116 0  0.4813174754524939 0.749300949209047 0  0.4565879544614571 0.7462019380552466 0  0.4322898819624801 0.740656061455649 0  0.4086647429962413 0.7327184368030547 0  0.3859473347991467 0.7224679517606571 0  0.3643634333251838 0.7100064803301749 0  0.3441275489297311 0.695457870134069 0  0.3254407949698314 0.6789667118188061 0  0.3084888888534789 0.6606969019845276 0  0.2934403061462555 0.6408300141129275 0  0.2804446064830403 0.6195634943350726 0  0.269630946912789 0.5971086987849272 0  0.2611067984684691 0.5736887933271766 0  0.2549568779993002 0.5495365356090853 0  0.2512423061461697 0.5248919615242357 0  -0.1 1.05000000000004 0  -0.1 1.000000000000079 0  -0.1 0.9500000000001624 0  -0.1 0.9000000000003032 0  -0.1 0.850000000000444 0  -0.1 0.8000000000005848 0  -0.1 0.7500000000007256 0  -0.1 0.7000000000008665 0  -0.1 0.6500000000010508 0  -0.1 0.6000000000012352 0  -0.1 0.5500000000014196 0  -0.1 0.500000000001539 0  -0.1 0.4500000000014195 0  -0.1 0.4000000000013 0  -0.1 0.3500000000011588 0  -0.1 0.3000000000010178 0  -0.1 0.2500000000008986 0  -0.1 0.2000000000007579 0  -0.1 0.1500000000006174 0  -0.1 0.1000000000005272 0  -0.1 0.05000000000040083 0  -0.1 2.671196597248127e-13 0  -0.1 -0.0499999999998666 0  -0.0500000000000906 -0.1 0  -1.730560139634463e-13 -0.1 0  0.04999999999975802 -0.1 0  0.09999999999961506 -0.1 0  0.1499999999994613 -0.1 0  0.199999999999302 -0.1 0  0.2499999999991446 -0.1 0  0.2999999999990088 -0.1 0  0.3499999999988296 -0.1 0  0.3999999999986936 -0.1 0  0.4499999999985143 -0.1 0  0.4999999999984002 -0.1 0  0.5499999999985247 -0.1 0  0.5999999999986493 -0.1 0  0.6499999999987955 -0.1 0  0.6999999999989417 -0.1 0  0.7499999999990659 -0.1 0  0.7999999999992116 -0.1 0  0.8499999999993573 -0.1 0  0.8999999999994526 -0.1 0  0.949999999999584 -0.1 0  0.9999999999997226 -0.1 0  1.049999999999861 -0.1 0  1.1 -0.0500000000000906 0  1.1 -1.730560139634463e-13 0  1.1 0.04999999999975802 0  1.1 0.09999999999961506 0  1.1 0.1499999999994613 0  1.1 0.199999999999302 0  1.1 0.2499999999991446 0  1.1 0.2999999999990088 0  1.1 0.3499999999988296 0  1.1 0.3999999999986936 0  1.1 0.4499999999985143 0  1.1 0.4999999999984002 0  1.1 0.5499999999985247 0  1.1 0.5999999999986493 0  1.1 0.6499999999987955 0  1.1 0.6999999999989417 0  1.1 0.7499999999990659 0  1.1 0.7999999999992116 0  1.1 0.8499999999993573 0  1.1 0.8999999999994526 0  1.1 0.949999999999584 0  1.1 0.9999999999997226 0  1.1 1.049999999999861 0  1.05000000000004 1.1 0  1.000000000000079 1.1 0  0.9500000000001624 1.1 0  0.9000000000003032 1.1 0  0.850000000000444 1.1 0  0.8000000000005848 1.1 0  0.7500000000007256 1.1 0  0.7000000000008665 1.1 0  0.6500000000010508 1.1 0  0.6000000000012352 1.1 0  0.5500000000014196 1.1 0  0.500000000001539 1.1 0  0.4500000000014195 1.1 0  0.4000000000013 1.1 0  0.3500000000011588 1.1 0  0.3000000000010178 1.1 0  0.2500000000008986 1.1 0  0.2000000000007579 1.1 0  0.1500000000006174 1.1 0  0.1000000000005272 1.1 0  0.05000000000040083 1.1 0  2.671196597248127e-13 1.1 0  -0.0499999999998666 1.1 0  0.8249380588907451 1.047616347440842 0  -0.04930414223247476 0.7750000000002943 0  0.7250000000005856 1.049304142232497 0  -0.04930414223250894 0.6750000000008883 0  -0.05005353055287366 0.4751214045757569 0  -0.05227636741069795 0.925000000000059 0  0.6250000000011962 1.049304142232509 0  0.37499999999883 -0.05069585776749304 0  -0.04761634744088217 0.5750619411107365 0  1.050053530552911 0.3248785954248981 0  1.047723632589258 0.4749999999986992 0  0.2749999999991388 -0.05069585776748813 0  1.052276367410739 0.1749999999994458 0  0.1749999999994412 -0.0506958577674825 0  0.5250619411110197 1.047616347440863 0  1.050695857767453 0.07499999999974039 0  0.07499999999974048 -0.05069585776745328 0  1.056698729810853 -0.02500000000013183 0  -0.02500000000013183 -0.05669872981085301 0  0.4749380588892939 -0.05238365255906055 0  0.974824126021423 -0.04563512511932064 0  1.025000000000059 1.056698729810831 0  -0.05669872981083125 1.025000000000059 0  0.4251214045756406 1.050053530552834 0  1.047723632589384 0.9249999999997078 0  1.047616347441076 0.5749380588895754 0  0.5748493108649708 -0.04995938179980262 0  0.8249999999993424 -0.05069585776744942 0  1.048086077196909 0.7751734351051978 0  1.051812352155594 0.6749999999989968 0  -0.05238335814404139 0.3750626088285485 0  0.3250000000011518 1.050695857767443 0  -0.05176372359543778 0.07508671755334279 0  0.9248785954258407 1.050053530552733 0  0.1250000000005609 1.050695857767434 0  -0.05227636741065858 0.225000000000865 0  0.2250000000008536 1.050695857767427 0  0.724999999999102 -0.05069585776740729 0  0.02540865088090011 1.050499744139456 0  -0.04896610583499801 0.8749999999998818 0  1.051033894164982 0.424999999998705 0  1.047374892871348 0.2249380588901613 0  0.9249790626212273 -0.05078526232326466 0  -0.04542102135115564 0.02517963619369482 0  1.052625107128575 0.8750619411087237 0  -0.04947264143743749 0.2751227133024619 0  1.050181237452982 0.3749797659032036 0  0.2249999999993328 -0.05023195258916177 0  0.3249999999990323 -0.05023195258916353 0  0.7749999999992561 -0.05023195258914277 0  -0.05109506967060531 0.6250073739427677 0  0.4249926260571179 -0.04890493032945368 0  0.1750000000007077 1.050231952589143 0  0.6750000000009053 1.049768047410834 0  1.04889215828797 0.1249999999996028 0  0.1249999999996294 -0.05023195258915596 0  0.5750073739430628 1.051095069670582 0  0.8749965104364534 -0.05024685334845234 0  0.2750000000010351 1.050231952589145 0  0.07506810848050217 1.050199266984482 0  -0.04976804741083062 0.7250000000006358 0  0.375020234097062 1.050124898053379 0  1.050906913760619 0.5249926260571207 0  -0.04882842775454567 0.4250219063587909 0  -0.04971170801124546 0.825000000000143 0  0.7749926260587385 1.051095069670549 0  1.048123057673042 0.0249999999998983 0  0.02499999999989832 -0.04812305767304204 0  -0.04737489287146101 0.175061941109966 0  0.6749790824564315 -0.0492394
[...]
<PointData  Scalars="f_40"> 
<DataArray  type="Float64"  Name="f_40"  format="ascii">0.0000000000000000e+00  0.0000000000000000e+00  0.0000000000000000e+00  0.0000000000000000e+00  -9.6950335579991553e-02  0.0000000000000000e+00  0.0000000000000000e+00  0.0000000000000000e+00  0.0000000000000000e+00  1.5064149556022544e-01  0.0000000000000000e+00  0.0000000000000000e+00  0.0000000000000000e+00  0.0000000000000000e+00  0.0000000000000000e+00  0.0000000000000000e+00  0.0000000000000000e+00  0.0000000000000000e+00  0.0000000000000000e+00  0.0000000000000000e+00  0.0000000000000000e+00  0.0000000000000000e+00  0.0000000000000000e+00  0.0000000000000000e+00  0.0000000000000000e+00  0.0000000000000000e+00  0.0000000000000000e+00  0.0000000000000000e+00  0.0000000000000000e+00  0.0000000000000000e+00  0.0000000000000000e+00  0.0000000000000000e+00  0.0000000000000000e+00  0.0000000000000000e+00  0.0000000000000000e+00  0.0000000000000000e+00  0.0000000000000000e+00  0.0000000000000000e+00  0.0000000000000000e+00  0.0000000000000000e+00  0.0000000000000000e+00  0.0000000000000000e+00  0.0000000000000000e+00  0.0000000000000000e+00  0.0000000000000000e+00  0.0000000000000000e+00  0.0000000000000000e+00  0.0000000000000000e+00  0.0000000000000000e+00  0.0000000000000000e+00  0.0000000000000000e+00  0.0000000000000000e+00  0.0000000000000000e+00  0.0000000000000000e+00  0.0000000000000000e+00  0.0000000000000000e+00  0.0000000000000000e+00  0.0000000000000000e+00  0.0000000000000000e+00  0.0000000000000000e+00  0.0000000000000000e+00  0.0000000000000000e+00  0.0000000000000000e+00  0.0000000000000000e+00  0.0000000000000000e+00  0.0000000000000000e+00  0.0000000000000000e+00  0.0000000000000000e+00  0.0000000000000000e+00  0.0000000000000000e+00  0.0000000000000000e+00  0.0000000000000000e+00  0.0000000000000000e+00  0.0000000000000000e+00  0.0000000000000000e+00  0.0000000000000000e+00  0.0000000000000000e+00  0.0000000000000000e+00  0.0000000000000000e+00  0.0000000000000000e+00  0.0000000000000000e+00  0.0000000000000000e+00  0.0000000000000000e+00  0.0000000000000000e+00  0.0000000000000000e+00  0.0000000000000000e+00  -9.7344349397318175e-02  -9.8475229969380268e-02  -1.0017199276663695e-01  -1.0221910621325639e-01  -1.0424706455194854e-01  -1.0590050970660378e-01  -1.0708863851964925e-01  -1.0734388931022701e-01  -1.0677979768737908e-01  -1.0562722284076306e-01  -1.0381892891251768e-01  -1.0172065248700252e-01  -9.9641387915159502e-02  -9.8097222734557774e-02  -9.7147025524260661e-02  -9.6936951538323476e-02  -9.7552075824989259e-02  -9.8837402601231222e-02  -1.0064484860296305e-01  -1.0267600556693343e-01  -1.0467404152808829e-01  -1.0625320236133107e-01  -1.0720731292522770e-01  -1.0738144350244974e-01  -1.0631829762354660e-01  -1.0508856294511923e-01  -1.0323199886959225e-01  -1.0122396854988505e-01  -9.9287562285172867e-02  -9.7807092601703449e-02  -9.6997174303559211e-02  -9.7018190960834805e-02  -9.7828889907530345e-02  -9.9263762138569370e-02  -1.0118246893810579e-01  -1.0324358939290364e-01  -1.0511401983127608e-01  -1.0666226027743052e-01  -1.0738827393123521e-01  -1.0728433209029718e-01  -1.0633283921746617e-01  -1.0478610556477191e-01  -1.0276261840073486e-01  -1.0071482514291522e-01  -9.8885896548134816e-02  -9.7586963284639297e-02  -9.7004954582477668e-02  -9.7200343846732429e-02  -9.8169268320640768e-02  -9.9770486282769411e-02  -1.0177905011097349e-01  -1.0384319476637321e-01  -1.0567184677316566e-01  -1.0690681753517228e-01  -1.0741451611278614e-01  -1.0709401448291929e-01  -1.0596628952089594e-01  -1.0433755618671067e-01  -1.0239701856275550e-01  -9.9996306925688949e-02  -9.8517228754657002e-02  -9.7385675593600354e-02  0.0000000000000000e+00  0.0000000000000000e+00  0.0000000000000000e+00  0.0000000000000000e+00  0.0000000000000000e+00  0.0000000000000000e+00  0.0000000000000000e+00  0.0000000000000000e+00  0.0000000000000000e+00  0.0000000000000000e+00  0.0000000000000000e+00  0.0000000000000000e+00  0.0000000000000000e+00  0.0000000000000000e+00  0.0000000000000000e+00  0.0000000000000000e+00  0.0000000000000000e+00  0.0000000000000000e+00  0.0000000000000000e+00  0.0000000000000000e+00  0.0000000000000000e+00  0.0000000000000000e+00  0.0000000000000000e+00  0.0000000000000000e+00  0.0000000000000000e+00  0.0000000000000000e+00  0.0000000000000000e+00  0.0000000000000000e+00  0.0000000000000000e+00  0.0000000000000000e+00  0.0000000000000000e+00  0.0000000000000000e+00  0.0000000000000000e+00  0.0000000000000000e+00  0.0000000000000000e+00  0.0000000000000000e+00  0.0000000000000000e+00  0.0000000000000000e+00  0.0000000000000000e+00  0.0000000000000000e+00  0.0000000000000000e+00  0.0000000000000000e+00  0.0000000000000000e+00  0.0000000000000000e+00  0.0000000000000000e+00  0.0000000000000000e+00  0.0000000000000000e+00  0.0000000000000000e+00  0.0000000000000000e+00  0.0000000000000000e+00  0.0000000000000000e+00  0.0000000000000000e+00  0.0000000000000000e+00  0.0000000000000000e+00  0.0000000000000000e+00  0.0000000000000000e+00  0.0000000000000000e+00  0.0000000000000000e+00  0.0000000000000000e+00  0.0000000000000000e+00  0.0000000000000000e+00  0.0000000000000000e+00  0.0000000000000000e+00  0.0000000000000000e+00  0.0000000000000000e+00  0.0000000000000000e+00  0.0000000000000000e+00  0.0000000000000000e+00  0.0000000000000000e+00  0.0000000000000000e+00  0.0000000000000000e+00  0.0000000000000000e+00  0.0000000000000000e+00  0.0000000000000000e+00  0.0000000000000000e+00  0.0000000000000000e+00  0.0000000000000000e+00  0.0000000000000000e+00  0.0000000000000000e+00  0.0000000000000000e+00  0.0000000000000000e+00  0.0000000000000000e+00  0.0000000000000000e+00  0.0000000000000000e+00  0.0000000000000000e+00  0.0000000000000000e+00  0.0000000000000000e+00  0.0000000000000000e+00  0.0000000000000000e+00  0.0000000000000000e+00  0.0000000000000000e+00  0.0000000000000000e+00  0.0000000000000000e+00  0.0000000000000000e+00  0.0000000000000000e+00  0.0000000000000000e+00  0.0000000000000000e+00  0.0000000000000000e+00  0.0000000000000000e+00  0.0000000000000000e+00  0.0000000000000000e+00  0.0000000000000000e+00  0.0000000000000000e+00  0.0000000000000000e+00  0.0000000000000000e+00  0.0000000000000000e+00  0.0000000000000000e+00  0.0000000000000000e+00  0.0000000000000000e+00  0.0000000000000000e+00  0.0000000000000000e+00  0.0000000000000000e+00  0.0000000000000000e+00  0.0000000000000000e+00  0.0000000000000000e+00  0.0000000000000000e+00  0.0000000000000000e+00  0.0000000000000000e+00  0.0000000000000000e+00  0.0000000000000000e+00  0.0000000000000000e+00  0.0000000000000000e+00  0.0000000000000000e+00  0.0000000000000000e+00  0.0000000000000000e+00  0.0000000000000000e+00  0.0000000000000000e+00  0.0000000000000000e+00  0.0000000000000000e+00  0.0000000000000000e+00  0.0000000000000000e+00  0.0000000000000000e+00  0.0000000000000000e+00  0.0000000000000000e+00  0.0000000000000000e+00  0.0000000000000000e+00  0.0000000000000000e+00  0.0000000000000000e+00  0.0000000000000000e+00  0.0000000000000000e+00  0.0000000000000000e+00  0.0000000000000000e+00  0.0000000000000000e+00  0.0000000000000000e+00  0.0000000000000000e+00  0.0000000000000000e+00  0.0000000000000000e+00  0.0000000000000000e+00  0.0000000000000000e+00  0.0000000000000000e+00  0.0000000000000000e+00  0.0000000000000000e+00  0.0000000000000000e+00  0.0000000000000000e+00  0.0000000000000000e+00  0.0000000000000000e+00  0.0000000000000000e+00  0.0000000000000000e+00  0.0000000000000000e+00  0.0000000000000000e+00  0.0000000000000000e+00  0.0000000000000000e+00  0.0000000000000000e+00  0.0000000000000000e+00  0.0000000000000000e+00  0.0000000000000000e+00  0.0000000000000000e+00  0.0000000000000000e+00  0.0000000000000000e+00  0.0000000000000000e+00  0.0000000000000000e+00  0.0000000000000000e+00  0.0000000000000000e+00  0.0000000000000000e+00  0.0000000000000000e+00  0.0000000000000000e+00  0.0000000000000000e+00  0.0000000000000000e+00  0.0000000000000000e+00  0.0000000000000000e+00  0.0000000000000000e+00  0.0000000000000000e+00  0.0000000000000000e+00  0.0000000000000000e+00  -1.4348063988203774e-01  -1.4254076116767081e-01  -1.4355915332272692e-01  -1.4323407933639984e-01  -1.4019636835403951e-01  -1.3969297194911126e-01  -1.3978717241923641e-01  -1.4006176435006282e-01  -1.3969237850098667e-01  -1.3919359685435809e-01  -1.3859700433347835e-01  -1.3796382457287767e-01  -6.5192666640791777e-02  -6.3934983478009411e-02  -6.5766635537676893e-02  -6.5906078798375858e-02  -6.4132260683558887e-02  -6.6971811029787595e-02  -6.6110564501478425e-02  -7.0227800126952317e-02  -1.3304442680342227e-01  -1.3282446059981720e-01  -1.3234504345363252e-01  -1.3222839860030780e-01  -1.3175272342135341e-01  -1.3173683736354708e-01  -1.3146481079528505e-01  -1.3169488742810589e-01  -1.3063645603611745e-01  -1.3058181993637022e-01  -1.3051865295377663e-01  -7.1753303393328804e-02  -6.6843523750540035e-02  -6.9034577237036404e-02  -6.6395172512134989e-02  -6.6802921135462115e-02  -6.9837756030076595e-02  -6.6806515661222907e-02  -6.3057063016179249e-02  -6.2129726415169638e-02  -6.9182139231023024e-02  -6.5235913728107081e-02  -6.2435712221105076e-02  -5.3889272013946929e-02  -5.4360479231111973e-02  -5.2847445822396741e-02  -6.0220882674794474e-02  -5.6834779835252466e-02  -5.5668929837920531e-02  -4.9907807862568092e-02  -5.1681514112114475e-02  -1.3103863676605529e-01  -1.3792082396411282e-01  -1.3946255345117253e-01  -1.4489957713512872e-01  -1.4387448281482262e-01  -1.4737657187563610e-01  -1.4708289489596710e-01  -1.4557381845123973e-01  -1.4099308856542717e-01  -1.4683966120678885e-01  -1.2931502200842465e-01  -1.3798500037569147e-01  -1.4631752195876152e-01  -1.3802029037021885e-01  -1.4866826400321526e-01  -1.3739525092123009e-01  -1.3799098890138456e-01  -1.5139390359929525e-01  -1.5169037234893495e-01  -1.5756749504427489e-01  -1.5476943220376271e-01  -1.6419758174315210e-01  -1.5781483132014229e-01  -1.6916646203739008e-01  -1.5863714796183673e-01  -1.7178350761214886e-01  -1.7501777530334667e-01  -1.7832187502508504e-01  -1.7030674171398649e-01  -1.7653751453546715e-01  -1.8016476166841025e-01  -1.7720456633679521e-01  -1.6323026635958993e-01  -1.7787284327168945e-01  -1.7300296647907837e-01  -1.7267769215127204e-01  -1.6555509136690069e-01  -1.6579101435076724e-01  -1.6513914490382389e-01  -1.5465417930180433e-01  -1.5760268527250676e-01  -1.4511342156140170e-01  -1.7051695202380895e-01  -1.6003327524894481e-01  -1.5537321448911467e-01  -1.4852246597809185e-01  -1.5036323383312050e-01  -1.3851771909003927e-01  -1.4390491192434757e-01  -1.3889061000188635e-01  -1.4246047920510574e-01  -1.5109805155855510e-01  -1.2547704395406939e-01  -1.3650608633383188e-01  -1.4560964488887315e-01  -1.4348552216008534e-01  -1.5113784078176409e-01  -1.3888673979534139e-01  -1.4531256191848999e-01  -1.4835250245166509e-01  -1.3965632210683274e-01  -1.4893260836510522e-01  -1.5161068838872366e-01  -1.5611092473633056e-01  -1.4723186596503998e-01  -1.5792538534838982e-01  -1.6126771694892875e-01  -1.6771576248351919e-01  -1.5553118188511911e-01  -1.6714768796138524e-01  -1.7376949153404714e-01  -1.7466115290699757e-01  -1.7783991987490211e-01  -1.7855147708517924e-01  -1.7959427474629672e-01  -1.7848104173692900e-01  -1.7821938250451880e-01  -1.7067636518909104e-01  -1.7353949937121471e-01  -1.7309886297687097e-01  -1.6289385813832322e-01  -1.6354561087621619e-01  -1.4601920952594319e-01  -1.6182458238601125e-01  -1.6174213107195873e-01  -1.6843375922139631e-01  -1.6127470850355927e-01  -1.7028147128449223e-01  -1.6134060761784094e-01  -1.5683286913754951e-01  -1.7255995803749322e-01  -1.4945027705156511e-01  -1.4826152874324874e-01  -1.5151478253841186e-01  -1.4826735745039588e-01  -1.3452158156604080e-01  -1.3806454238934929e-01  -1.4581700891440491e-01  -1.4066491509712775e-01  -1.4584656865976742e-01  -1.4365461554974560e-01  -1.4715181636323074e-01  -1.4901712111834706e-01  -1.5128512786065240e-01  -1.5397180139908903e-01  -1.5607416276505709e-01  -1.5992853629709211e-01  -1.6206473872256574e-01  -1.6638374820772378e-01  -1.6931131082672027e-01  -1.7215180764795865e-01  -1.7550162004199638e-01  -1.7605648168055010e-01  -1.7980403552896457e-01  -1.7676641466179849e-01  -1.7926733747232823e-01  -1.7170433842659158e-01  -1.7313100580883864e-01  -1.7728228735786211e-01  -1.7033159594348110e-01  -1.6082864739033453e-01  -1.6406755741984355e-01  -1.7203248744160843e-01  -1.6487968523909580e-01  -1.5470517006544793e-01  -1.6506747046659587e-01  -1.5810790814994025e-01  -1.5803622604600331e-01  -1.5080275751490632e-01  -1.5407486585026775e-01  -1.5228558358434455e-01  -1.4417186518127895e-01  -1.4775904363929054e-01  -1.7214817636492924e-01  -1.4244249457992300e-01  -1.6621360764838822e-01  -1.4912165932509036e-01  -1.3430655060421884e-01  -1.4750563907099082e-01  -1.3774567287336215e-01  -1.4557411826724478e-01  -1.3238432284687585e-01  -1.4281440065225903e-01  -1.2670712498952957e-01  -1.4152711345704608e-01  -1.4700093574858186e-01  -1.5093991809556306e-01  -1.4001153431571647e-01  -1.5344635036765855e-01  -1.5498543991586558e-01  -1.6231865491861888e-01  -1.5542471475366812e-01  -1.6637520889227214e-01  -1.5519627269464487e-01  -1.6846241959874342e-01  -1.7299290740475928e-01  -1.7666453077074806e-01  -1.6701521359663460e-01  -1.7486318354817143e-01  -1.8003117324650741e-01  -1.7717322867041665e-01  -1.7943886611162749e-01  -1.7433664101717794e-01  -1.6743078224223173e-01  -1.7549881121520647e-01  -1.6697569292162109e-01  -1.6855070310047382e-01  -1.5535255659645669e-01  -1.5934028897707289e-01  -1.6936594210869974e-01  -1.7539738191717807e-01  -1.5020295958798191e-01  -1.4781051284886768e-01  -1.2922288192697542e-01  -1.1047984696087684e-01  -1.2396064886873281e-01  -1.4886595574650510e-01  -1.2103630591219140e-01  -1.5921885342021885e-01  -1.2489955451559617e-01  -1.3683819358026333e-01  -1.5534310005837215e-01  -1.3595385029710014e-01  -1.6167567305992414e-01  -1.4757163239234547e-01  -1.3882816548136251e-01  -1.2739753603879997e-01  -1.3982291804978475e-01  -1.3535987752038808e-01  -1.3033020691652775e-01  -1.5095603006283623e-01  -1.4445077496949382e-01  -1.4245572735448742e-01  -1.5170568295690759e-01  -1.4394462787885876e-01  -1.5380110271239780e-01  -1.2071430947645773e-01  -1.2707238399493209e-01  -1.1048213077103124e-01  -1.2959920463271152e-01  -1.4555065985052143e-01  -1.5325592555120668e-01  -1.4670553080274121e-01  -1.5579446577324016e-01  -1.5247513161751103e-01  -1.5243435042890530e-01  -1.5388642542188810e-01  -1.5638317874422902e-01  -1.0381302474163812e-01  -1.4475421841026523e-01  -1.4364216367291438e-01  -1.4876265006895334e-01  -1.4178312915131042e-01  -1.1107411562236093e-01  -1.3962168880539522e-01  -1.5222854244614809e-01  -1.4320376139413341e-01  -1.4583050442430190e-01  -8.3505372416653387e-02  -1.4669816343597697e-01  -1.4205322552221730e-01  -1.4261831268971892e-01  -1.3776816824599228e-01  -1.4299623333225236e-01  -9.9748960913612586e-02  -8.9195852316849775e-02  -1.2668537244830638e-01  -1.2358764933138804e-01  -1.0816567140162688e-01  -9.8390285656592025e-02  -1.4591694116752196e-01  -1.4055043379367496e-01  -1.3045935088068647e-01  -1.4298952260273901e-01  -1.4466386040790624e-01  -1.1182133390508693e-01  -1.7121080067342251e-01  -1.6228942566372567e-01  -1.6099491867893140e-01  -1.5035592045012150e-01  -1.5139245320334596e-01  -1.3640151843518261e-01  -1.7220447351125345e-01  -1.6058868606774465e-01  -1.5915962382574880e-01  -1.4948765892774246e-01  -1.0594107673089631e-01  -1.5861134226320142e-01  -1.5305105111210340e-01  -1.5947830422274661e-01  -1.4622172201540712e-01  -1.7194564802943338e-01  -1.6387634392235362e-01  -1.7394665968569323e-01  -1.4631418595287879e-01  -1.4000689287139162e-01  -1.4508054702544435e-01  -1.0423466241615108e-01  -9.4809349688132913e-02  -5.5786832355232255e-02  -1.3428141094459412e-01  -1.3649915723952294e-01  -1.4222773223953225e-01  -1.4445072501144895e-01  -1.5298366612390624e-01  -1.5604777481402729e-01  -1.6360234023303927e-01  -1.6277973908126220e-01  -1.3088961355319426e-01  -1.3078658432352044e-01  -1.3721068349488461e-01  -1.4279704224907866e-01  -1.5271968339788269e-01  -1.5194719130874351e-01  -1.6242798562645552e-01  -1.4320943921746346e-01  -1.4206343626888332e-01  -1.4970757249532710e-01  -1.4755542608070937e-01  -1.5185781970315396e-01  -1.3717427742107954e-01  -1.4156208737358289e-01  -1.5228490842375300e-01  -1.3658955856950133e-01  -1.4605894911330272e-01  -1.4417340104672494e-01  -1.3063536712342697e-01  -1.4088774068020846e-01  -1.4854341697194634e-01  -1.5191829759489681e-01  -1.5972620856029540e-01  -1.5545015658912414e-01  -1.6482745172395977e-01  -1.5579837323325524e-01  -1.6881028862831135e-01  -1.6082199621721302e-01  -1.7246513219701792e-01  -1.6392644314249585e-01  -1.3106754865140188e-01  -1.4226029845445451e-01  -1.4952758495820681e-01  -1.5217061804425872e-01  -1.3401171185497379e-01  -1.4008929090245587e-01  -1.4451330045978433e-01  -1.6396156861409608e-01  -6.5401276844556461e-02  -1.4841341161404450e-01  -1.4526017619979914e-01  -1.3485344216356632e-01  -1.6744870644895729e-01  -1.3837228008099517e-01  -1.1118629254116565e-01  -1.1090897077918641e-01  -1.4375180731454776e-01  -1.3671356956077260e-01  -1.2104675373726471e-01  -7.2223203671650790e-02  -1.1120348774976391e-01  -1.1498319868072207e-01  -7.0021876801921942e-02  -1.1895063795571033e-01  -7.3990351844958599e-02  -1.2076424621585082e-01  -6.4281882467029552e-02  -1.0639593632026710e-01  -1.0997276647778588e-01  -6.8829612819294131e-02  -1.2447605944439530e-01  -7.9769353859537165e-02  -1.2293285151706566e-01  -6.0073864438842536e-02  -1.6192289333051993e-01  -1.3786011724522879e-01  -1.1142095683007573e-01  -1.6092375719181234e-01  -1.4132624444295230e-01  -1.0256117311624025e-01  -8.1256062150387595e-02  -1.0926703189209906e-01  -1.3756007654647179e-01  -1.1078595325060421e-01  -1.5455860731246621e-01  -1.6185533152169773e-01  -1.4849593497714361e-01  -1.3150914482846701e-01  -1.5035287792356092e-01  -6.2157191652476775e-02  -6.2116417459552133e-02  -6.5837506633465326e-02  -1.1040551447492841e-01  -7.5637909794012970e-02  -1.1460247509393882e-01  -1.0923485273845683e-01  -6.1358372844879355e-02  -1.0119600399801355e-01  -1.3540783598896206e-01  -1.2167926589357214e-01  -8.7006549214821913e-02  -4.6163729358895837e-02  -1.5043336795285125e-01  -1.2801342214349176e-01  -1.5394125868213396e-01  -1.1978402087664251e-01  -9.0046986880347041e-02  -6.0642976651611037e-02  -7.1788009209969181e-02  -1.1074522624764919e-01  -5.7320495565518589e-02  -1.0273836111834762e-01  -8.7218432001945012e-02  -4.6171642293094665e-02  -6.6542294609358899e-02  -6.6485130389429603e-02  -1.1002034552663985e-01  -1.2030458060223004e-01  -6.0698719089961668e-02  -9.8612548986097670e-02  -7.6868579102127021e-02  -1.1592130456942316e-01  -1.3127459034633016e-01  -1.1229738997924803e-01  -6.0916382682718394e-02  -6.0335306063787640e-02  -5.9967863429196758e-02  -1.0677543649248213e-01  -9.9267731868446923e-02  -1.3104531658131097e-01  -1.4535984633511731e-01  -7.5256598432571889e-02  -1.7429892416654980e-01  -1.0557955054444336e-01  -3.8661594244161240e-02  -1.3084786042875041e-01  -1.3354831917481771e-01  -1.4267983877410967e-01  -1.4471372881413760e-01  -1.3414549220389402e-01  -1.4165884642282722e-01  -1.3742909244085655e-01  -6.4599457781739103e-02  -1.3831773751081627e-01  -1.4619418191225914e-01  -1.4177068865998496e-01  -1.0358120075354452e-01  -1.3139370058093616e-01  -1.3870936226661107e-01  -1.5867294885995339e-01  -7.0713755959870062e-02  -6.0036924117099801e-02  -6.3812551137396617e-02  -4.3139878368602148e-02  -1.0478361351073624e-01  -1.5853629056754431e-01  -1.5544097299947457e-01  -9.6746632933611798e-02  -1.1228661618483902e-01  -1.4463249736138750e-01  -1.5960416220243773e-01  -1.1742990104813557e-01  -1.4191672289498827e-01  -1.0797966738294446e-01  -1.6702446277146185e-01  -1.4684550980789055e-01  -1.130024