<?xml version="1.0"?>
<VTKFile type="UnstructuredGrid"  version="0.1"  >
<UnstructuredGrid>
<Piece  NumberOfPoints="1242" NumberOfCells="2386">
<Points>
<DataArray  type="Float64"  NumberOfComponents="3"  format="ascii">0 0 0  0 1 0  1 1 0  1 0 0  1.1 -0.1 0  -0.1 -0.1 0  1.1 1.1 0  -0.1 1.1 0  0.5009142701271374 0.5069399523842766 0  0.595567925207509 0.7289346540171688 0  0 0.9499999999997918 0  0 0.8999999999995836 0  0 0.8499999999996529 0  0 0.7999999999999998 0  0 0.7500000000003466 0  0 0.7000000000006934 0  0 0.6500000000010401 0  0 0.6000000000013869 0  0 0.5500000000017335 0  0 0.5000000000020587 0  0 0.4500000000018723 0  0 0.4000000000016644 0  0 0.3500000000014564 0  0 0.3000000000012483 0  0 0.2500000000010403 0  0 0.2000000000008322 0  0 0.1500000000006241 0  0 0.100000000000416 0  0 0.05000000000020799 0  0.04999999999989965 0 0  0.09999999999981467 0 0  0.1499999999997036 0 0  0.1999999999995579 0 0  0.2499999999994121 0 0  0.2999999999992664 0 0  0.3499999999991206 0 0  0.3999999999989749 0 0  0.4499999999988292 0 0  0.4999999999986943 0 0  0.5499999999988151 0 0  0.5999999999989468 0 0  0.6499999999990784 0 0  0.69999999999921 0 0  0.7499999999993417 0 0  0.7999999999994734 0 0  0.8499999999996051 0 0  0.8999999999997368 0 0  0.9499999999998684 0 0  1 0.04999999999989965 0  1 0.09999999999981467 0  1 0.1499999999997036 0  1 0.1999999999995579 0  1 0.2499999999994121 0  1 0.2999999999992664 0  1 0.3499999999991206 0  1 0.3999999999989749 0  1 0.4499999999988292 0  1 0.4999999999986943 0  1 0.5499999999988151 0  1 0.5999999999989468 0  1 0.6499999999990784 0  1 0.69999999999921 0  1 0.7499999999993417 0  1 0.7999999999994734 0  1 0.8499999999996051 0  1 0.8999999999997368 0  1 0.9499999999998684 0  0.9499999999997918 1 0  0.8999999999995836 1 0  0.8499999999996529 1 0  0.7999999999999998 1 0  0.7500000000003466 1 0  0.7000000000006934 1 0  0.6500000000010401 1 0  0.6000000000013869 1 0  0.5500000000017335 1 0  0.5000000000020587 1 0  0.4500000000018723 1 0  0.4000000000016644 1 0  0.3500000000014564 1 0  0.3000000000012483 1 0  0.2500000000010403 1 0  0.2000000000008322 1 0  0.1500000000006241 1 0  0.100000000000416 1 0  0.05000000000020799 1 0  -0.1 1.05000000000004 0  -0.1 1.000000000000079 0  -0.1 0.9500000000001624 0  -0.1 0.9000000000003032 0  -0.1 0.850000000000444 0  -0.1 0.8000000000005848 0  -0.1 0.7500000000007256 0  -0.1 0.7000000000008665 0  -0.1 0.6500000000010508 0  -0.1 0.6000000000012352 0  -0.1 0.5500000000014196 0  -0.1 0.500000000001539 0  -0.1 0.4500000000014195 0  -0.1 0.4000000000013 0  -0.1 0.3500000000011588 0  -0.1 0.3000000000010178 0  -0.1 0.2500000000008986 0  -0.1 0.2000000000007579 0  -0.1 0.1500000000006174 0  -0.1 0.1000000000005272 0  -0.1 0.05000000000040083 0  -0.1 2.671196597248127e-13 0  -0.1 -0.0499999999998666 0  -0.0500000000000906 -0.1 0  -1.730560139634463e-13 -0.1 0  0.04999999999975802 -0.1 0  0.09999999999961506 -0.1 0  0.1499999999994613 -0.1 0  0.199999999999302 -0.1 0  0.2499999999991446 -0.1 0  0.2999999999990088 -0.1 0  0.3499999999988296 -0.1 0  0.3999999999986936 -0.1 0  0.4499999999985143 -0.1 0  0.4999999999984002 -0.1 0  0.5499999999985247 -0.1 0  0.5999999999986493 -0.1 0  0.6499999999987955 -0.1 0  0.6999999999989417 -0.1 0  0.7499999999990659 -0.1 0  0.7999999999992116 -0.1 0  0.8499999999993573 -0.1 0  0.8999999999994526 -0.1 0  0.949999999999584 -0.1 0  0.9999999999997226 -0.1 0  1.049999999999861 -0.1 0  1.1 -0.0500000000000906 0  1.1 -1.730560139634463e-13 0  1.1 0.04999999999975802 0  1.1 0.09999999999961506 0  1.1 0.1499999999994613 0  1.1 0.199999999999302 0  1.1 0.2499999999991446 0  1.1 0.2999999999990088 0  1.1 0.3499999999988296 0  1.1 0.3999999999986936 0  1.1 0.4499999999985143 0  1.1 0.4999999999984002 0  1.1 0.5499999999985247 0  1.1 0.5999999999986493 0  1.1 0.6499999999987955 0  1.1 0.6999999999989417 0  1.1 0.7499999999990659 0  1.1 0.7999999999992116 0  1.1 0.8499999999993573 0  1.1 0.8999999999994526 0  1.1 0.949999999999584 0  1.1 0.9999999999997226 0  1.1 1.049999999999861 0  1.05000000000004 1.1 0  1.000000000000079 1.1 0  0.9500000000001624 1.1 0  0.9000000000003032 1.1 0  0.850000000000444 1.1 0  0.8000000000005848 1.1 0  0.7500000000007256 1.1 0  0.7000000000008665 1.1 0  0.6500000000010508 1.1 0  0.6000000000012352 1.1 0  0.5500000000014196 1.1 0  0.500000000001539 1.1 0  0.4500000000014195 1.1 0  0.4000000000013 1.1 0  0.3500000000011588 1.1 0  0.3000000000010178 1.1 0  0.2500000000008986 1.1 0  0.2000000000007579 1.1 0  0.1500000000006174 1.1 0  0.1000000000005272 1.1 0  0.05000000000040083 1.1 0  2.671196597248127e-13 1.1 0  -0.0499999999998666 1.1 0  0.6197044607603289 0.7178915916195681 0  0.6426584497497612 0.7038599429937672 0  0.6644595672898271 0.6870769734072675 0  0.6841045087242923 0.6675595947754145 0  0.7013043474713386 0.6460634429389154 0  0.7156116144758008 0.62301344739648 0  0.7271520004344423 0.5989188569064393 0  0.7359724461842969 0.5742993179033895 0  0.7421216522663711 0.5494551437681453 0  0.7456660343022662 0.5245433510953187 0  0.7465486392047188 0.4998460910241744 0  0.7454018804498161 0.4754743157857393 0  0.7418959374811758 0.4514525889917292 0  0.736190392442529 0.428000816224371 0  0.7286645987418742 0.4049775973815554 0  0.7185130412439082 0.3825005271756783 0  0.7058248460825431 0.36091525974648 0  0.6906737151804243 0.3401893831033769 0  0.6731446170008182 0.3205642274201981 0  0.6531479183426181 0.3027797871501272 0  0.6310833831759093 0.287284625220179 0  0.6072133833796219 0.2743623547823127 0  0.5820410161430619 0.2642945269589437 0  0.5559918930493087 0.2572626279239139 0  0.5295726238618534 0.253298751839298 0  0.5033833200056487 0.2522809704553934 0  0.4780460319574379 0.2537432101250903 0  0.4543258581323158 0.2569573533018095 0  0.4316517987841504 0.2619975306092631 0  0.4097731199561495 0.2691929676054124 0  0.3888917856344311 0.2785162803684723 0  0.3694698391522042 0.2897032261288965 0  0.3513098281660472 0.3023114114195926 0  0.3344366042614504 0.3166475207888727 0  0.3183428403291838 0.3324277435924741 0  0.3034674614347196 0.3501794275178979 0  0.289832911452203 0.3695515325117972 0  0.2777862032068566 0.3907683952453136 0  0.2673315489835781 0.4136962907804253 0  0.2590095109182253 0.438321936272797 0  0.2534702356736804 0.4644256287171679 0  0.2503869629746887 0.4914984529514296 0  0.2509689280430231 0.5190220951808862 0  0.2543530395659918 0.546229434043783 0  0.261161310953614 0.5729141196979278 0  0.2709861109917169 0.5985401680002318 0  0.2834031946254589 0.622590883148226 0  0.298014415956268 0.6445736227800972 0  0.3143337921307717 0.6644259792510402 0  0.3317107609492655 0.6820752185524117 0  0.3502342309456289 0.697601735727717 0  0.3699499207004226 0.7109493266176119 0  0.3904300770060716 0.722242018580438 0  0.4115036665168758 0.7313783004472004 0  0.4331495804702987 0.7385059294607804 0  0.4553142692050793 0.7434624764582394 0  0.4776369177351277 0.7464692788775338 0  0.5002916447469802 0.7474839041222983 0  0.5234914027285532 0.7463657545601432 0  0.5472091000026525 0.7429932384801466 0  0.5711295538058337 0.7372186090271441 0  0.2813036690298908 0.4390949176347632 0  0.3206278149044773 0.6317340330364557 0  0.6448428429865259 0.6798359769241483 0  0.7108178427369817 0.5827774002009092 0  0.5616049194697004 0.7128182577452102 0  0.4920565823580259 0.7209766385403537 0  0.3105984407504321 0.3798748117329948 0  0.3574348549109022 0.3313110644484156 0  0.4115322789711298 0.2954558774269826 0  0.3739044447192817 0.6799346120063382 0  0.6089764580878495 0.297552047217047 0  0.4961199356205737 0.2734858558487302 0  0.678461636509153 0.3606196923815812 0  0.7101518242556775 0.4219804962688901 0  0.4295951694031758 0.7083747790997029 0  0.7249458443627556 0.514167244633725 0  0.2817931452155337 0.5748883513724211 0  0.2682310909943282 0.5069019307655139 0  0.4520348585346487 0.2802994772993816 0  0.7214580285438257 0.4683821180308773 0  0.6903901095521571 0.6278433977674219 0  0.5444388547262545 0.2759186837510764 0  0.6013992481407858 0.7040907712213157 0  0.6489214862416475 0.3246883782998118 0  0.3744977355946291 0.3175324775179792 0  0.380559050866793 0.3460963296798851 0  0.3614753318463648 0.3602299747187231 0  0.3846034777140256 0.3760441345855051 0  0.4045609777524151 0.3600389749244191 0  0.4057641937870474 0.3886013985274769 0  0.3889258518547262 0.4081826456611993 0  0.4313852386300569 0.3768041312212311 0  0.4216075442002341 0.4243220372432571 0  0.3918427211249504 0.4501272501398607 0  0.4607414568821841 0.4166707024570191 0  0.4726529376248336 0.3669833540825269 0  0.5036151909282065 0.4126857524107966 0  0.5179982756891542 0.3655252099437154 0  0.5478150097324798 0.4074386972831807 0  0.5643999046791734 0.3616025495960358 0  0.5958267213767405 0.3991404566199832 0  0.5786290109649294 0.4419562653430563 0  0.6301865152776424 0.4340260339067842 0  0.6090117676497434 0.4738053613451679 0  0.6495256985166136 0.465747288794175 0  0.6406167006149267 0.5061165489777332 0  0.5947193323339789 0.515013320435318 0  0.627916809163196 0.5462925956623768 0  0.5815023379491366 0.5580396243008225 0  0.6134552731186339 0.5889450153659392 0  0.5664617336800913 0.6022490763650798 0  0.5942930443618318 0.6284989054521978 0  0.5601277019347953 0.6471161921700298 0  0.5319662620575633 0.6218753925986235 0  0.6280477917634001 0.6205809076244526 0  0.599281068876573 0.3687816844903779 0  0.366784665507947 0.4263628908310212 0  0.3614635953923972 0.4637654488989139 0  0.3926506711468817 0.4943437046818794 0  0.3591612264732366 0.5116342159260954 0  0.3909696142032316 0.5385801113812634 0  0.3617107948563154 0.5561362336953021 0  0.3863209012799139 0.5863090389705596 0  0.335561540576082 0.5359244300918914 0  0.4198030956741781 0.5644174290346248 0  0.4149419711164565 0.6131666789738663 0  0.4570699776188355 0.5854435748172762 0  0.4432677203167769 0.6323180404822765 0  0.3330325143142318 0.4448947373790393 0  0.5355635442465021 0.341360370820872 0  0.6562975105011
[...]
<PointData  Scalars="v"> 
<DataArray  type="Float64"  Name="v"  format="ascii">6.8837164358664773e-21  1.0916404624291356e-19  2.3877043727104773e-19  2.5769178738546946e-20  -1.3351954110685874e-21  2.3573267485978648e-23  -7.1233592555640754e-22  -6.0481540266414904e-21  4.9518721753152146e-04  3.3465881995726424e-04  -1.0320035291859329e-21  1.5168602759300376e-19  3.4203787869889992e-19  9.5736384888049488e-19  -4.5081479179003834e-19  3.0046053093846616e-19  1.1835142904150874e-18  1.4032327751317772e-18  7.5411076330829267e-19  2.7218377436709973e-19  3.6256474889159936e-18  1.5990816436517808e-18  7.5657074026306135e-19  7.8270622382893782e-19  1.1730246416902397e-20  6.5682383013482248e-19  -1.3985926951198517e-19  7.3422519309805812e-20  -1.3718819354307335e-20  4.8815040585365261e-20  7.7448190322047250e-20  -2.0055243294230872e-19  5.6633885047151417e-19  5.0041537252637954e-19  9.0901482514098842e-21  2.3322291168436278e-18  9.4950998113774870e-19  4.0204533595337550e-19  5.0043905536376362e-19  3.8156840819496644e-19  5.3020260779898758e-19  -7.4705886636388804e-19  -3.4097015538294864e-20  -9.2264016335909285e-19  2.0096479471022246e-19  2.9032379989373064e-19  -1.6588949727410649e-19  -3.1768910796400488e-19  -3.3730281053985981e-19  4.2789571886533592e-19  1.6344920572787790e-18  -1.7493661475697218e-18  -6.1415761490800341e-19  6.4190660815421479e-19  -9.6597031097261668e-20  -1.0311386290900341e-17  -2.8198664059216653e-18  3.8128960213593338e-18  -4.5493451406154468e-18  3.9446953838234759e-19  8.3564946648608125e-21  1.2567747511516474e-19  -2.9164065389028243e-18  1.3354229133783947e-18  1.8277834898656769e-18  -1.2338516292306094e-18  -8.1346290179236586e-20  8.4663464750763089e-19  1.1733692427024289e-19  2.9349049364420381e-19  -5.9637129448049447e-19  -3.2529123931716931e-19  4.8005796455436688e-18  2.1812650681332137e-19  5.2405666610521875e-18  -5.1377908244180232e-18  -2.1991571692496462e-18  4.5850617895777172e-18  -1.4222321327585361e-18  -8.1940029155747887e-20  -3.9554353616959471e-18  5.9913813389187413e-19  2.9443448410300909e-19  2.1968526933995973e-18  2.7189801485408626e-19  2.4030778279548896e-19  2.4229551701686602e-21  1.1803193264700305e-20  6.4259166390094705e-22  2.6277544891324741e-21  9.1727694627858442e-20  6.3807641859018139e-20  -2.9975299905437041e-20  -2.8452786133123340e-20  1.6734782710358418e-19  2.3165346027939724e-19  8.0578445310632793e-20  1.1020336823640929e-19  3.9875422019138235e-19  2.9074895362508483e-19  1.0964017689234469e-19  1.6589201726693611e-19  4.9098514946657274e-20  3.6566200162628101e-20  -1.2590645565041528e-20  2.2071293615346483e-21  -1.3520483481604351e-21  2.2292441259478906e-22  3.8858647010420408e-22  -1.6613921371241699e-21  7.3109130052194893e-21  1.2531543944897903e-20  -7.8858170669079077e-21  1.1976865405677564e-20  1.7627182333966384e-20  -3.7614424834488037e-21  5.0052333395789294e-20  2.2768532619128883e-19  1.9160479967572319e-19  5.6738629577255406e-20  5.6401829646773538e-20  5.9828288616300173e-20  4.0875099562108857e-20  -3.7361912605206737e-20  -6.1794814011743457e-20  -6.6754894974926904e-20  1.3594866797888267e-21  5.3619486376970101e-20  -2.8486992061267771e-20  -3.3297579951698078e-20  -5.2579697148395299e-21  5.4342252642597227e-21  -3.3808404959142902e-21  7.6108150322036834e-21  3.7547622724286792e-20  3.2480395071546129e-20  1.7116435556154032e-20  -2.2650647723483263e-21  -4.2206920748377044e-20  -2.2397760547956622e-20  1.5706702236993256e-20  3.4182219793472268e-20  -1.3570028563858862e-20  -4.3400821616034572e-20  -2.3078286613019467e-20  -1.6495944083593861e-20  -1.3038708640991565e-21  7.5157234782520687e-21  5.0598956455358726e-23  -3.8850204094910597e-20  -9.9827522077182397e-21  -3.0092845825884702e-22  -8.7653661029355111e-21  1.1795715982698254e-21  2.1557793589149201e-21  -2.4858272722545290e-21  8.7934458596314944e-21  2.0904918566962612e-20  2.6639187241692278e-20  3.1300434927169111e-20  -1.6260797034547722e-21  4.6171699714504508e-20  7.8776260721297841e-20  8.2507458495189128e-20  6.3075950899125970e-20  -8.5245012630711164e-21  -6.6388367020664319e-20  -1.1557269822663986e-21  1.1047801334096031e-21  -2.2651635847872379e-20  2.2391568242923207e-21  -2.0353062994947254e-20  1.1185636185277534e-20  3.7036292677449239e-20  3.4909088106485809e-20  -1.0531927390398181e-20  2.1857568715842636e-21  6.6835111310649209e-21  3.3535035525555652e-04  3.3602503003040047e-04  3.3697697581822506e-04  3.3793506163422391e-04  3.3874092378722805e-04  3.4078915570565787e-04  3.4158852785348698e-04  3.4194183091893138e-04  3.4181075230862057e-04  3.4195792654794085e-04  3.4221102995635330e-04  3.4158161123522951e-04  3.4100296377164254e-04  3.4057180224010986e-04  3.3926712657056705e-04  3.3804212185991413e-04  3.3690897156468333e-04  3.3510773055052992e-04  3.3099789460384692e-04  3.2786047207029184e-04  3.2513107750379374e-04  3.2281267750063221e-04  3.2153333010634790e-04  3.2178726001609484e-04  3.2332226492547958e-04  3.2593037509378133e-04  3.2879309437919345e-04  3.2997487118533153e-04  3.3073841455471739e-04  3.3138908309976732e-04  3.3236048718246860e-04  3.3484975200115115e-04  3.3512483766888522e-04  3.3681759684811119e-04  3.3396608471921021e-04  3.3232261733881897e-04  3.2828624685687105e-04  3.2371618243926719e-04  3.1795553031314157e-04  3.1176889804312150e-04  3.0660767748726830e-04  3.0205774223337383e-04  3.0030806423846486e-04  3.0076509966587477e-04  3.0363016489803717e-04  3.0717994235482946e-04  3.1183281161139881e-04  3.1677118322051670e-04  3.2058127491600306e-04  3.2285332657621703e-04  3.2428829021228253e-04  3.2567347892025877e-04  3.2630779136914021e-04  3.2717492701124712e-04  3.2777990007033222e-04  3.2876311966621794e-04  3.2932062346428576e-04  3.3015768438706766e-04  3.3142249033665480e-04  3.3258505667336472e-04  3.3380442409361411e-04  3.5101129553234310e-04  3.5761439755249984e-04  3.6641608522455999e-04  3.7866118639013285e-04  3.7676366619794301e-04  3.7392579489892446e-04  3.6505663227104259e-04  3.7504281989566933e-04  3.7232857026420050e-04  3.6809498427031241e-04  3.6090965215939102e-04  3.6378857337241447e-04  3.7263703913418953e-04  3.7896388678691388e-04  3.7188674383307259e-04  3.7992812793243355e-04  3.3688458669622998e-04  3.2985583997293441e-04  3.6822457624727191e-04  3.8103755112916523e-04  3.6820345519458325e-04  3.6014112517841616e-04  3.7194108198362479e-04  3.6474568398729582e-04  3.7469920459157853e-04  4.0008312411934124e-04  3.9709818611607988e-04  4.2168416883251288e-04  4.2304120526932625e-04  4.3975426539443022e-04  4.3711803024086213e-04  4.4204923812086588e-04  4.6011299207107160e-04  4.5022631173076199e-04  4.6998218835087345e-04  4.4659649343800655e-04  4.7467326792665504e-04  4.4793686948614217e-04  4.7026652801559132e-04  4.3672820853894208e-04  4.4913291276810647e-04  4.7579564059440786e-04  4.4774955020111118e-04  4.7151296977257241e-04  4.4566347235508035e-04  4.5597184551759127e-04  4.7922677657538415e-04  4.5770729946891789e-04  4.7506002728700769e-04  4.4943430314774304e-04  4.6247235891594402e-04  4.3818405943402459e-04  4.3696646111288063e-04  4.5731479220075704e-04  4.2596122577858380e-04  4.2997354862015717e-04  4.2901704165761265e-04  4.3048244006020571e-04  4.5356985878943265e-04  4.2834818953901014e-04  4.4811576811340037e-04  4.2239973874941543e-04  4.3171084403521387e-04  4.0444688288925995e-04  4.5807169296914452e-04  4.3586879245443265e-04  4.6613080318325329e-04  4.3814364657817278e-04  4.0508182707557844e-04  4.2861252003886379e-04  4.4282192690589631e-04  3.9189621679412256e-04  4.4033667265100910e-04  4.1186118117270332e-04  4.1400104303619440e-04  4.4164963581013546e-04  4.1918143393338447e-04  4.1306726919134362e-04  4.1604274791417388e-04  4.0365231248144399e-04  4.0914826946598974e-04  4.2018691459858271e-04  3.7725070715756838e-04  3.8399875095553737e-04  3.6995173915634299e-04  3.6424890711692022e-04  3.9915345255574144e-04  4.4714958358213453e-04  4.7016072074747690e-04  4.2038452626619880e-04  4.1346529242007385e-04  3.9699653675836919e-04  3.9695772151370910e-04  4.2506857418133704e-04  4.1827696607492799e-04  4.2884273419546172e-04  4.0742902024843547e-04  4.0694019500716754e-04  4.0774089671547750e-04  4.7029529534145796e-04  3.6124683136727072e-04  3.8647362522284374e-04  4.1344316768994574e-04  4.3219454017777404e-04  4.0336047870769307e-04  4.0679031132009104e-04  4.0681912349740820e-04  3.9052645893641961e-04  3.8251562926819543e-04  3.9498077518435628e-04  3.8975128187918945e-04  3.8788471931801305e-04  4.1745646584675296e-04  4.0479349245789019e-04  4.3173036616989298e-04  4.1733929758965498e-04  4.1681417515554409e-04  3.9093044208268578e-04  4.1123477902430520e-04  3.6155078668608230e-04  3.7582124857702710e-04  3.6818224452643609e-04  3.9932981532904535e-04  4.7836258024788059e-04  4.8920631923537691e-04  3.6883346805949350e-04  3.7501822071350793e-04  3.7703879190274564e-04  4.9060349975848377e-04  3.7932513366980083e-04  4.2842374710296688e-04  4.1091565959279323e-04  3.5785327637571907e-04  3.7162611110134303e-04  3.7410468968837926e-04  3.8012648747853719e-04  3.5729311077396119e-04  3.6164465174499526e-04  4.3182262936887841e-04  3.9393117969848502e-04  3.9005942896680083e-04  3.7048223346289701e-04  3.9665683564766685e-04  3.6576236236812715e-04  3.5997486464481369e-04  3.7136365718712974e-04  4.0763294963813105e-04  3.4980679023055388e-04  3.8795391465505012e-04  4.0086211726782152e-04  3.8222457835505554e-04  3.8117498178495739e-04  4.0508914415861129e-04  3.7934837866235977e-04  3.7654564279870331e-04  3.9872274279279299e-04  4.8764287867772660e-04  3.4038198500847415e-04  4.7837823676172254e-04  3.6705126384194007e-04  3.6245558945899098e-04  3.8199528499349017e-04  3.9896127519383932e-04  3.6054065351827955e-04  3.6858237749845063e-04  3.8626196502413059e-04  3.4862433555669670e-04  3.8510976714463050e-04  3.2310072714805986e-04  4.3288467761269661e-04  4.9097953840094969e-04  4.7003075611561811e-04  3.9543012157154358e-04  3.8280763553314714e-04  3.8568244587324234e-04  3.4971754924749350e-04  3.7929907055563278e-04  4.0097291031928846e-04  3.6806681757909959e-04  3.5662091663574570e-04  3.6503859781226257e-04  3.9070548145568579e-04  3.6511488597391119e-04  4.2679431097271349e-04  3.9780158842421103e-04  3.4603427098823587e-04  3.6280239256487250e-04  3.7700260816367841e-04  3.6230335093790061e-04  3.3414924912424912e-04  3.3814792649963636e-04  4.2264785822300130e-04  3.9431462216482519e-04  4.1497506680804964e-04  3.5907230145794031e-04  3.8327377075951909e-04  3.8720434158106843e-04  4.8404585053421208e-04  3.8988601216718749e-04  3.7601673924878026e-04  3.9398381588714966e-04  4.1706266047242279e-04  4.0352442483640308e-04  4.0271834722640929e-04  3.8728557004255972e-04  4.0621240492367394e-04  3.8376925641802955e-04  4.1321278240587651e-04  3.8092379179154468e-04  4.0135930096423894e-04  4.1078136005483998e-04  3.8417923902791802e-04  4.0468990477725031e-04  4.2261138355989959e-04  4.5480078679302092e-04  4.0791760248261132e-04  3.6723760385655983e-04  4.0894015475697693e-04  4.3658435013390143e-04  4.2330624151980196e-04  3.9993260204475973e-04  4.8675227964415664e-04  4.2671281715031214e-04  4.3521371816537330e-04  4.2974993346425484e-04  3.8772288636626843e-04  4.2084032205182592e-04  3.9563801723448578e-04  4.7796572632641937e-04  3.9338947873852572e-04  3.8442468038167425e-04  3.9671890587968063e-04  4.3387531336109230e-04  4.2351894214335433e-04  3.8573000530758882e-04  4.1517207916220885e-04  4.1522660703188947e-04  4.1397742750156399e-04  3.9784437516215542e-04  4.0062326649050654e-04  3.5772413455320036e-04  4.3505551530688473e-04  4.2096857054484143e-04  3.3907931082746056e-04  4.0421503668669197e-04  3.0909433889786652e-04  3.1123093224445341e-04  3.0860785154279507e-04  2.9950686363278291e-04  3.1455773492595763e-04  3.1065271320538073e-04  3.0145507745073854e-04  3.0268277264369536e-04  3.1377812786830721e-04  3.1577077644988599e-04  3.1701381457594646e-04  3.0315368463951518e-04  2.8810486907502480e-04  2.8041800651903802e-04  3.0483132436111792e-04  3.0998236640534984e-04  2.9868402192228749e-05  3.0315003067687995e-04  2.9744205441990028e-05  4.2603188359341584e-05  3.1476634290622399e-04  4.1737527290861904e-05  3.1679492048938709e-04  4.2000363777614976e-05  4.0404964557400377e-05  4.3987578421583651e-05  2.9890737847717332e-04  3.0103034932425532e-04  4.5528425241241276e-05  2.8891759592747991e-04  3.1360550669170628e-04  3.3576646507968720e-05  2.7997617037541872e-04  4.7097249403450461e-05  5.4295164673515595e-05  3.0598343227498736e-04  5.7253975648183326e-05  5.9025380542441910e-05  6.9673903337376616e-05  5.8542861287196853e-05  6.0879949075167412e-05  5.9697130021001806e-05  5.4866019624062113e-05  4.7408380379958858e-05  7.8459973518107723e-05  2.8483576145889127e-05  2.1840289991683574e-05  2.1670490095216804e-05  2.7564755519380235e-05  7.8985426363903158e-05  2.5858529569044943e-05  2.7490432295993144e-05  3.0936955190654041e-05  2.3471473651865995e-05  2.7504994999804825e-04  2.6199113962183367e-04  2.5570743960774131e-04  2.3730675082981819e-04  2.4314566483086322e-04  2.2836669531110435e-04  2.1267704043384484e-04  2.1941428233214174e-04  1.8376404856846956e-04  1.9040106138045008e-04  2.2475286646139918e-04  1.9359477300646936e-04  2.3006681149049737e-04  1.9444832701526855e-04  2.2260036435918891e-04  1.9000327098962311e-04  2.1436449358395920e-04  1.8145951958272792e-04  2.0236774777214803e-04  1.6798619237166169e-04  1.8606340109557809e-04  1.4734748984357893e-04  2.1900492397941771e-04  2.0152854759353153e-04  1.6452361383835699e-04  1.7676709384218721e-04  2.1504732082407342e-04  1.8738397225349094e-04  1.3738011062450361e-04  2.2485776212187637e-04  1.9630139241984119e-04  1.3263696745038171e-04  1.5883099843834410e-04  1.1262249015233335e-04  2.3911093482014217e-04  2.0454866298597665e-04  2.4262259248061140e-04  2.1024738436806949e-04  1.6933444815846524e-04  1.7491269566786540e-04  2.1643553887550350e-04  1.8039794992663873e-04  2.2758404839207262e-04  1.8583373897775699e-04  2.2565280411541443e-04  1.8808997385773131e-04  2.3223498062273742e-04  1.8908869350651541e-04  2.2912407629144046e-04  1.8621058276776904e-04  2.1806063292175159e-04  1.7871192926108935e-04  2.0793115912459825e-04  1.6753384964855205e-04  1.9264902851498343e-04  1.5391422476399342e-04  1.7290541592529521e-04  2.1154807996742549e-04  1.8636814315378675e-04  2.2359071807173444e-04  1.9380816282611849e-04  2.2959248148381005e-04  1.9428587272322481e-04  2.2904689498540228e-04  1.5125651207021024e-04  1.8921503221928864e-04  2.2972169172324274e-04  1.3627902871938413e-04  1.5472033124351906e-04  2.5047535907412764e-04  1.3025703531683141e-04  2.4739236301048211e-04  2.5360922741386320e-04  1.5712475625276085e-04  9.5347058737922370e-05  2.4271136941079712e-04  1.4362177203075199e-04  2.5975704079758108e-04  1.8233602772317397e-04  2.1287997789650904e-04  2.5505833025945207e-04  2.4684202788626485e-04  1.9613553064029912e-04  2.2536571956770083e-04  7.8726157642371872e-05  2.5856973149787144e-04  2.5996260764060317e-04  9.4284059958841461e-05  1.7518719178792879e-04  2.0456275613911290e-04  2.5018671250672973e-04  2.3745842971138178e-04  1.8435534348043692e-04  2.1196890114387983e-04  1.6125101067524368e-04  1.8907214586527123e-04  2.3474812971811931e-04  2.1243893284267866e-04  2.5326852696476020e-04  2.3170827966304748e-04  1.8985058725797842e-04  2.0813229852236222e-04  1.6525534991656946e-04  1.8233326381050503e-04  2.2165723512615389e-04  1.9371657491495250e-04  2.2987070527001409e-04  1.9968265497350440e-04  1.6450664091594217e-04  1.6655907662541588e-04  1.9849162043797782e-04  1.6214988415584166e-04  1.9043993705314524e-04  1.3193124350872410e-04  2.2772849287778550e-04  2.1713380399445356e-04  1.7636000174750329e-04  2.0046147186946305e-04  1.5708338823572054e-04  1.8023409962772259e-04  2.2278243858763725e-04  1.9834159742473744e-04  2.5690730248460487e-04  2.6205888571500965e-04  1.3950061236486463e-04  2.5272856559787726e-04  2.6788757476009425e-04  2.4025415450150821e-04  2.2178879138243210e-04  1.6917660786043838e-04  1.8514902824712394e-04  2.3528845614167657e-04  1.9854496826792354e-04  2.3832976763498261e-04  2.0727362054296533e-04  2.4539718485211507e-04  2.1518569842083091e-04  1.7238373325883258e-04  1.8044018444382992e-04  2.3184958512615695e-04  1.8882426653593802e-04  2.2529538672113781e-04  1.9125621380405429e-04  2.2444964606938708e-04  1.9318673107707695e-04  2.2282915207541898e-04  1.9140953912564858e-04  2.1961430797420213e-04  1.8579057072374880e-04  2.1076300611014105e-04  1.7546493116864424e-04  1.9775957564578084e-04  1.6070858531206682e-04  1.7822590714499495e-04  1.3974299224583817e-04  2.1645739585938662e-04  1.9343571169594089e-04  1.5989783818895305e-04  2.5620599010013514e-04  1.5338555223045250e-04  1.6508170731542249e-04  2.0605005275502839e-04  1.2401763078685046e-04  1.0505838871221739e-04  1.7519855172993008e-04  2.1632027186642319e-04  1.8311619282849174e-04  1.1522651036501307e-04  1.2253498991583381e-04  2.5602015838738505e-04  2.2841602965098626e-04  1.8866021439065518e-04  2.2852189747112761e-04  1.9340023845630948e-04  2.5397984610412875e-04  1.4610477600471555e-04  1.3263874712752768e-04  8.7278694616396073e-05  1.3704984865050952e-04  1.2502321993254173e-04  9.7239790877632951e-05  1.0113023826296950e-04  2.8489191347849403e-04  1.1800542431011282e-04  1.4775867581072073e-04  1.5889654663936765e-04  8.1101829591976449e-05  1.7355201600227166e-04  1.1427467532422483e-04  1.2631405860870793e-04  9.7068828036739557e-05  1.0806826455711913e-04  1.4040591419062998e-04  1.3446155429401889e-04  1.0831334803715157e-04  2.4591827326748348e-04  2.5952188824817111e-04  2.8610950621204450e-04  1.2579409034841894e-04  2.8473491053171294e-04  2.6868137391858972e-04  2.7577975485121276e-04  8.2762702639849588e-05  2.8134928401123550e-04  1.3051576374630380e-04  1.0716876235075464e-04  2.9495409043368148e-04  2.1427364013536376e-04  2.3290040592307187e-04  1.4785323366365796e-04  2.7380072646497063e-04  2.8493005840802166e-04  7.0763033423743265e-05  2.7821969560294684e-04  2.8037292187611514e-04  2.8800496305785603e-04  2.6545091283344780e-04  9.2332985031021779e-05  2.5533381677811888e-04  2.7168787080111844e-04  2.9570999186151914e-04  3.0377632324508642e-04  6.5204671918157365e-05  6.3837665779370212e-05  3.1465362084181288e-04  3.0138694694140550e-04  2.9864301145404959e-04  3.0162609566687832e-04  3.0397093294705959e-04  9.4174744356723919e-05  1.1382598231389573e-04  2.6978148415264416e-04  2.6069521322593178e-04  2.8415007419660296e-04  2.5640929261364174e-04  2.7679437985622695e-04  8.7837073344298428e-05  1.2084712078075153e-04  8.7389467720212712e-05  3.0803971234940187e-04  2.8467112359261700e-04  2.7651151293405250e-04  1.4076696623355241e-04  3.1018061166257109e-04  2.9136106073116838e-04  5.2941859787607287e-05  4.9467689093125998e-05  2.2919776096664438e-05  2.9181541337505967e-04  2.8273388085569347e-04  1.3198950777151041e-04  2.5807283801897049e-04  2.5354120277471247e-04  2.5957015764462591e-04  2.7909231096273228e-04  3.0875166554199148e-04  3.0815440672548103e-04  3.1139756494094617e-04  2.9853261202303740e-04  2.9514594257835008e-04  2.7772964603356036e-04  2.6116096041314406e-04  3.0676956769013256e-04  2.8968954045588630e-04  6.7901392838652612e-05  9.6656076524128306e-05  2.3699091415583899e-04  3.0167987965019292e-04  2.8820632461595028e-04  2.9023917265416426e-04  2.8481174863638031e-04  8.7601036052042797e-05  2.5712861717695442e-04  3.0111327560641479e-04  2.8790067225394902e-04  2.8802837523933967e-04  2.6934529977879488e-04  2.7083995880213392e-04  2.8666019821531666e-04  2.6734517663074578e-04  2.8201794596303243e-04  2.6203898765974541e-04  2.7710879275865004e-04  2.3676729043905495e-04  3.0397537638112386e-04  7.9659580949534170e-05  8.8530552231268344e-05  2.9614480651544045e-04  2.8131435151198771e-04  2.8574587