<?xml version="1.0"?>
<VTKFile type="UnstructuredGrid"  version="0.1"  >
<UnstructuredGrid>
<Piece  NumberOfPoints="1143" NumberOfCells="2188">
<Points>
<DataArray  type="Float64"  NumberOfComponents="3"  format="ascii">0 0 0  0 1 0  1 1 0  1 0 0  1.1 -0.1 0  -0.1 -0.1 0  1.1 1.1 0  -0.1 1.1 0  0.5508808754940194 0.5265151015531652 0  0.6070070060982071 0.6967562029491872 0  0 0.9499999999997918 0  0 0.8999999999995836 0  0 0.8499999999996529 0  0 0.7999999999999998 0  0 0.7500000000003466 0  0 0.7000000000006934 0  0 0.6500000000010401 0  0 0.6000000000013869 0  0 0.5500000000017335 0  0 0.5000000000020587 0  0 0.4500000000018723 0  0 0.4000000000016644 0  0 0.3500000000014564 0  0 0.3000000000012483 0  0 0.2500000000010403 0  0 0.2000000000008322 0  0 0.1500000000006241 0  0 0.100000000000416 0  0 0.05000000000020799 0  0.04999999999989965 0 0  0.09999999999981467 0 0  0.1499999999997036 0 0  0.1999999999995579 0 0  0.2499999999994121 0 0  0.2999999999992664 0 0  0.3499999999991206 0 0  0.3999999999989749 0 0  0.4499999999988292 0 0  0.4999999999986943 0 0  0.5499999999988151 0 0  0.5999999999989468 0 0  0.6499999999990784 0 0  0.69999999999921 0 0  0.7499999999993417 0 0  0.7999999999994734 0 0  0.8499999999996051 0 0  0.8999999999997368 0 0  0.9499999999998684 0 0  1 0.04999999999989965 0  1 0.09999999999981467 0  1 0.1499999999997036 0  1 0.1999999999995579 0  1 0.2499999999994121 0  1 0.2999999999992664 0  1 0.3499999999991206 0  1 0.3999999999989749 0  1 0.4499999999988292 0  1 0.4999999999986943 0  1 0.5499999999988151 0  1 0.5999999999989468 0  1 0.6499999999990784 0  1 0.69999999999921 0  1 0.7499999999993417 0  1 0.7999999999994734 0  1 0.8499999999996051 0  1 0.8999999999997368 0  1 0.9499999999998684 0  0.9499999999997918 1 0  0.8999999999995836 1 0  0.8499999999996529 1 0  0.7999999999999998 1 0  0.7500000000003466 1 0  0.7000000000006934 1 0  0.6500000000010401 1 0  0.6000000000013869 1 0  0.5500000000017335 1 0  0.5000000000020587 1 0  0.4500000000018723 1 0  0.4000000000016644 1 0  0.3500000000014564 1 0  0.3000000000012483 1 0  0.2500000000010403 1 0  0.2000000000008322 1 0  0.1500000000006241 1 0  0.100000000000416 1 0  0.05000000000020799 1 0  -0.1 1.05000000000004 0  -0.1 1.000000000000079 0  -0.1 0.9500000000001624 0  -0.1 0.9000000000003032 0  -0.1 0.850000000000444 0  -0.1 0.8000000000005848 0  -0.1 0.7500000000007256 0  -0.1 0.7000000000008665 0  -0.1 0.6500000000010508 0  -0.1 0.6000000000012352 0  -0.1 0.5500000000014196 0  -0.1 0.500000000001539 0  -0.1 0.4500000000014195 0  -0.1 0.4000000000013 0  -0.1 0.3500000000011588 0  -0.1 0.3000000000010178 0  -0.1 0.2500000000008986 0  -0.1 0.2000000000007579 0  -0.1 0.1500000000006174 0  -0.1 0.1000000000005272 0  -0.1 0.05000000000040083 0  -0.1 2.671196597248127e-13 0  -0.1 -0.0499999999998666 0  -0.0500000000000906 -0.1 0  -1.730560139634463e-13 -0.1 0  0.04999999999975802 -0.1 0  0.09999999999961506 -0.1 0  0.1499999999994613 -0.1 0  0.199999999999302 -0.1 0  0.2499999999991446 -0.1 0  0.2999999999990088 -0.1 0  0.3499999999988296 -0.1 0  0.3999999999986936 -0.1 0  0.4499999999985143 -0.1 0  0.4999999999984002 -0.1 0  0.5499999999985247 -0.1 0  0.5999999999986493 -0.1 0  0.6499999999987955 -0.1 0  0.6999999999989417 -0.1 0  0.7499999999990659 -0.1 0  0.7999999999992116 -0.1 0  0.8499999999993573 -0.1 0  0.8999999999994526 -0.1 0  0.949999999999584 -0.1 0  0.9999999999997226 -0.1 0  1.049999999999861 -0.1 0  1.1 -0.0500000000000906 0  1.1 -1.730560139634463e-13 0  1.1 0.04999999999975802 0  1.1 0.09999999999961506 0  1.1 0.1499999999994613 0  1.1 0.199999999999302 0  1.1 0.2499999999991446 0  1.1 0.2999999999990088 0  1.1 0.3499999999988296 0  1.1 0.3999999999986936 0  1.1 0.4499999999985143 0  1.1 0.4999999999984002 0  1.1 0.5499999999985247 0  1.1 0.5999999999986493 0  1.1 0.6499999999987955 0  1.1 0.6999999999989417 0  1.1 0.7499999999990659 0  1.1 0.7999999999992116 0  1.1 0.8499999999993573 0  1.1 0.8999999999994526 0  1.1 0.949999999999584 0  1.1 0.9999999999997226 0  1.1 1.049999999999861 0  1.05000000000004 1.1 0  1.000000000000079 1.1 0  0.9500000000001624 1.1 0  0.9000000000003032 1.1 0  0.850000000000444 1.1 0  0.8000000000005848 1.1 0  0.7500000000007256 1.1 0  0.7000000000008665 1.1 0  0.6500000000010508 1.1 0  0.6000000000012352 1.1 0  0.5500000000014196 1.1 0  0.500000000001539 1.1 0  0.4500000000014195 1.1 0  0.4000000000013 1.1 0  0.3500000000011588 1.1 0  0.3000000000010178 1.1 0  0.2500000000008986 1.1 0  0.2000000000007579 1.1 0  0.1500000000006174 1.1 0  0.1000000000005272 1.1 0  0.05000000000040083 1.1 0  2.671196597248127e-13 1.1 0  -0.0499999999998666 1.1 0  0.6430177537157995 0.684982367223409 0  0.6783979547187021 0.6639552557713438 0  0.7066726313052968 0.630988752327579 0  0.721530575924006 0.5921299023485049 0  0.7304986151515275 0.5543565641936751 0  0.7333978926762428 0.5169685439791061 0  0.7328293823334978 0.4802498552162746 0  0.727106552145397 0.4444950803535132 0  0.7177126095011046 0.4095722890672527 0  0.7061227451687138 0.3747043678123519 0  0.6901439246427318 0.340633423586674 0  0.6675568269740362 0.3085178459444566 0  0.6368053663433242 0.2814139323246134 0  0.5995070746895806 0.2621268514732442 0  0.5602077254471972 0.2553597383791562 0  0.5231868797819865 0.25765542510878 0  0.489231811459901 0.265472095318532 0  0.4577067143634046 0.2763083466280074 0  0.4284225543541179 0.2896049406611039 0  0.4007865025174056 0.3046794933776935 0  0.3749480160617282 0.3216447667787646 0  0.3494508707030867 0.3392768814601784 0  0.3243182255982215 0.3582480113550609 0  0.3009888483071376 0.3799732698065884 0  0.2789099918403955 0.4037537111267429 0  0.2582853553425956 0.429819320371697 0  0.2395833767424429 0.4589961818386055 0  0.2245315396452107 0.4929700529278233 0  0.2263016585357939 0.5358150915290141 0  0.2449238421101173 0.5712583674316731 0  0.2692961879679221 0.5980959607042384 0  0.2956507897528243 0.620284714093879 0  0.3235427658270247 0.6390759998737838 0  0.3514231872940454 0.6562081120839077 0  0.3807194066009074 0.6701320432091693 0  0.4108707453685696 0.6811435070925216 0  0.4416383873657574 0.6900173976786754 0  0.4731939145255933 0.6951325969449154 0  0.5048296153671081 0.699333180503009 0  0.5375524733245637 0.7020394105559197 0  0.5715277429556282 0.7018960134934334 0  0.3757886589351195 0.6253995253658299 0  0.3561318443648145 0.3828536509122488 0  0.6482999104847491 0.3411467808572496 0  0.5210687938092387 0.2955857239549958 0  0.2873335282223041 0.4485828509406991 0  0.6520716388588412 0.640037145723734 0  0.4080596427738181 0.3435500945553006 0  0.4343647793269283 0.6475657348167705 0  0.3199579419822421 0.5951686000297972 0  0.4609966111553594 0.3153673300387946 0  0.6914770336652725 0.433604547462657 0  0.7011465171541843 0.5018578715511275 0  0.693390134038145 0.5731102765552208 0  0.2699151395449377 0.5487898452965889 0  0.590876441629741 0.6721082818629037 0  0.4959493940743971 0.6600227933652724 0  0.5834321143370971 0.2906571337083095 0  0.2559433070128627 0.5036608868139087 0  0.3822501756286457 0.3638555884920968 0  0.3884897192219117 0.4073273791738554 0  0.3621151660430516 0.4276488860661771 0  0.3933377827155717 0.4512041012729757 0  0.4216224188699021 0.4292744522622082 0  0.4250600163215634 0.4788674239583816 0  0.3670690374591074 0.4729417022426786 0  0.4596842150748844 0.4547013913820845 0  0.4584300423399885 0.5178723681558683 0  0.4203028431548869 0.5266024291872689 0  0.4513568204376812 0.4051514486841439 0  0.4903633598726329 0.4274440281091726 0  0.4621353151136893 0.5723550306146056 0  0.4263387961665193 0.5921616583625893 0  0.4822651110564235 0.3829301026598396 0  0.5176124904528288 0.401213350423816 0  0.5104981743792689 0.360591546267351 0  0.5479684552348895 0.3764346566840737 0  0.5643100640506233 0.4220780861523039 0  0.594581192944232 0.3919563440326258 0  0.5946702382114123 0.4484596234100575 0  0.577798395947676 0.3502806961818377 0  0.6291437864997849 0.4166309496113492 0  0.3376938445607365 0.4495168121550938 0  0.3418665827131612 0.4961187251602103 0  0.3696519029691178 0.5186998880624348 0  0.3428743778340503 0.5384671629445672 0  0.3116061266172555 0.5154639669156724 0  0.3723350502230171 0.5695170896411847 0  0.6147597382384257 0.3582693519920396 0  0.4470828440267782 0.3580071387906983 0  0.5364467018149974 0.3359665455813906 0  0.3948138265622451 0.4982138549342451 0  0.3317163380843123 0.4019895923804027 0  0.3473313102363988 0.6122203154101569 0  0.4039736529755593 0.6348422306256636 0  0.4164106443205404 0.3873372596146989 0  0.4639097803946335 0.6553239780625727 0  0.486775905110875 0.6209762992951233 0  0.5186141923773128 0.6255933538732495 0  0.5079314817730881 0.5854932067806586 0  0.5426191016592753 0.5908837761772819 0  0.5951844597579201 0.5633704268497776 0  0.5777350315452593 0.6080090624779217 0  0.5994797611817951 0.5117698140715385 0  0.632222914519289 0.5384059883325065 0  0.6291054358135358 0.580936559417887 0  0.6427906554200514 0.4921403313613086 0  0.5278126674421865 0.6645438990551579 0  0.662613974760438 0.5590030828212685 0  0.6575366087393718 0.6001227996890461 0  0.6267986298346457 0.6193167417724086 0  0.3086344038745791 0.426605834715303 0  0.2939772767503921 0.5769806200086257 0  0.5629335604851577 0.3136157323137296 0  0.4989214365870522 0.3244372357234392 0  0.6688102977995527 0.5192341170638191 0  0.6979168619703031 0.4678608174734008 0  0.6639617165290767 0.4588343773816905 0  0.2682964701013881 0.4719945455261776 0  0.281715963875619 0.5125962981669679 0  0.6813861816987714 0.3987053483510946 0  0.562271938614301 0.6674473449856295 0  0.397455725338006 0.5976727098167138 0  0.459436303546819 0.6128746449850131 0  0.6990649306481191 0.5372346564548798 0  0.5541058571580519 0.6313739265692829 0  0.5654367214789422 0.4732195450182141 0  0.3136550082365747 0.4731139122556276 0  0.6734744219264951 0.3681029180769473 0  0.605060788265697 0.3221724779421638 0  0.6432941556261491 0.3850963940353579 0  0.684811845112367
[...]
<PointData  Scalars="v"> 
<DataArray  type="Float64"  Name="v"  format="ascii">5.0349918602454991e-21  1.1334690538241507e-19  2.4391455199844065e-19  2.2631691984137573e-20  -1.4232600815421323e-21  1.6296884509347337e-22  -1.0242538603950956e-21  -6.0353980769333152e-21  4.5787714829989270e-03  3.5887200723771660e-03  -4.1961659934148488e-21  9.5846773583398428e-20  3.3662279137596394e-19  1.0365377915291200e-18  -4.7882307192725193e-19  2.5390965585002735e-19  1.1373458233264696e-18  1.4220333999948944e-18  7.0651847306831496e-19  2.7211593067345912e-19  3.6756418948464663e-18  1.4962633907140482e-18  6.7692815371165092e-19  7.5234417974314510e-19  0.0000000000000000e+00  6.5652657712923440e-19  -1.7059313542843092e-19  6.0446726649263896e-20  -3.3600258669087321e-21  4.6613738435628540e-20  6.1157604202418979e-20  -1.9672040655864365e-19  5.6882624709182219e-19  4.2194969315624440e-19  7.1536934604354351e-20  2.3208546609943192e-18  8.5646720422756964e-19  1.3316586662470257e-19  4.4522500004401672e-19  2.4956039656555880e-19  3.5968110510416648e-19  -7.0351161954811330e-19  -1.1157342192367046e-19  -8.6729647416477374e-19  1.6748411633471711e-19  2.6626038772985008e-19  -1.1784685880668555e-19  -3.2106711720972555e-19  -3.2749459682670056e-19  2.9627665084911880e-19  1.4510687297349356e-18  -1.7373353324558438e-18  -6.3761272270810091e-19  5.2912366802493482e-20  -9.9818361968978175e-20  -1.0388059778674949e-17  -3.3294765788222554e-18  4.0096884475442733e-18  -4.9138982311446152e-18  -2.4181452796724227e-19  -1.7961620238774119e-20  1.0588975253987643e-19  -2.8992436337181479e-18  1.3551988753458108e-18  1.8241103221838179e-18  -1.2072197995738337e-18  -7.9342692157483166e-20  8.2613103442204379e-19  9.6810165407097641e-20  2.8333319711899451e-19  -7.7429139993791262e-20  3.3172929810065946e-19  3.8922343255275975e-18  1.3341082581497788e-19  5.2495552150351425e-18  -4.0386439250271498e-18  -1.0151639475585664e-18  4.4577594681341147e-18  -2.9820184788196391e-19  -5.2507874871316311e-20  -3.2095679563112584e-18  3.5599008525654566e-20  -1.8006427437354318e-19  1.7438593352268692e-18  2.0248547396095990e-19  2.7115012889586834e-19  2.3944384386533830e-21  1.2936152150176702e-20  -1.2235749319235244e-21  -3.4844441160752136e-21  8.9958475943804301e-20  6.7285496863738818e-20  -3.0088843204468805e-20  -3.6475456943012479e-20  1.6378426019861296e-19  2.3000965585289538e-19  7.3303846687619334e-20  1.1202562456133153e-19  4.0176206758139445e-19  2.8044492802276268e-19  9.7121463549308732e-20  1.6110755634953959e-19  4.7660466837164836e-20  3.7821291608213512e-20  -1.5810278501497346e-20  8.3188093506347493e-23  -3.9567307749339616e-22  4.4730320512295268e-22  1.6128474946634969e-22  -1.7145338326160086e-21  7.2442490571923080e-21  1.1727151801189598e-20  -9.7470908919348886e-21  1.3202993949873846e-20  1.5017842531800231e-20  -9.9465978593005164e-21  5.3839688604537179e-20  2.3075298536328938e-19  1.6952364788343978e-19  2.6227609923930560e-20  4.0489572749250328e-20  4.2779948770496844e-20  2.5820602453700539e-20  -3.9378727719787776e-20  -6.4347854469343447e-20  -6.5635785035368081e-20  -1.6749064900688604e-22  5.2385380602419806e-20  -2.4383526672586575e-20  -3.1871328148344472e-20  -6.5033309153015562e-21  5.5714146979559757e-21  -2.8799536145435040e-21  5.8863723796248513e-21  3.6658948862847200e-20  3.6190147738178821e-20  1.9381955017747516e-20  -1.7650891701375647e-21  -4.8381316017017316e-20  -3.2061202681067491e-20  9.7476381339556154e-21  2.6329352306735936e-20  2.1188441138581829e-21  -3.3070062596245315e-20  -5.2847902792205229e-20  -2.8984387849351546e-20  9.8979678462287393e-22  3.6022402518390033e-21  2.3194028308707464e-21  -3.6189324613676877e-20  -8.5192859922299328e-21  1.8426505429577616e-21  -7.3983143423697585e-21  1.2989365775573180e-21  2.3340845934887058e-21  -2.1988957854370275e-21  9.4129085921206381e-21  1.8400342433547388e-20  2.3920165260470268e-20  2.9145103877363396e-20  -7.4348151154849516e-21  3.9919902701811936e-20  6.9357234298297455e-20  7.4621996698581030e-20  5.5092070941775299e-20  -2.2448339546381117e-20  -8.1316046947800012e-20  -1.6993235447481026e-20  -5.8332200115452534e-21  -2.2878506006547560e-20  2.4678285305529103e-21  -1.9339318868722284e-20  9.6851549765096394e-21  2.9711565342721185e-20  2.8468214224556965e-20  -9.7846976270443052e-21  4.1741863296306815e-21  6.1960307296348059e-21  3.4086404667400547e-03  3.2181904523537019e-03  3.0741604640576641e-03  3.0123727367863179e-03  2.9544404766642914e-03  2.9050302425904662e-03  2.8442948408092172e-03  2.7832873133396309e-03  2.7123242489365540e-03  2.6125783643054512e-03  2.5013563956161888e-03  2.4019170497833853e-03  2.3423542895449324e-03  2.3299202736264120e-03  2.3945563656718443e-03  2.5114801309699527e-03  2.6456178746950207e-03  2.7640462676130663e-03  2.8552263694536831e-03  2.9150261878773845e-03  2.9423486185261045e-03  2.9228074028267445e-03  2.8624669960122077e-03  2.7701828472129408e-03  2.6449633596095502e-03  2.5014687501448219e-03  2.3617935920054668e-03  2.2558682780882246e-03  2.3229898896258306e-03  2.5586379695536300e-03  2.8334896170411168e-03  3.1168147264600803e-03  3.3706612369578280e-03  3.5736826358465298e-03  3.7387363560639291e-03  3.8625797110651830e-03  3.9384766332881595e-03  3.9719892836315163e-03  3.9479859965113962e-03  3.8697095137314886e-03  3.7449653505300744e-03  4.0386515659194900e-03  3.3827769674467253e-03  2.9248884079609368e-03  3.0460083532541601e-03  3.0118717309861385e-03  3.7196910430038030e-03  3.4079093994573923e-03  4.3300786734899194e-03  3.5499031365518584e-03  3.2840064668472752e-03  3.2163157180540337e-03  3.3713666013974529e-03  3.4962432545427870e-03  2.9625537465861919e-03  4.0017748149416589e-03  4.3942356569388573e-03  2.8032006849015227e-03  2.7294997926285763e-03  3.4349261170597048e-03  3.7677149755399033e-03  3.6836144876567440e-03  4.0244311706208171e-03  4.0750204329015804e-03  4.3192700685218263e-03  3.9113053775856740e-03  4.3423087202331904e-03  4.5763576615523178e-03  4.4279965555668365e-03  4.0342451523316183e-03  4.2252681674340249e-03  4.6418633201822726e-03  4.4877212301312752e-03  3.9160300694867220e-03  4.0314410489920779e-03  3.7136752196127057e-03  3.7655058120040752e-03  4.0495455700968411e-03  3.6920905973875937e-03  4.0609194026909410e-03  3.4169902397819273e-03  3.6493585871860725e-03  3.5554101266438744e-03  3.7438203271499809e-03  4.0515536697376059e-03  3.8233921167426968e-03  3.4450399235151589e-03  4.1250901327454965e-03  3.2869295531276952e-03  3.6667074711308873e-03  3.4309641684027599e-03  4.2007210696914246e-03  3.2839783535428524e-03  3.8110938787483794e-03  4.2184201359693136e-03  3.7908065146218394e-03  4.3841510752743165e-03  4.5914729760089248e-03  4.5674287272567853e-03  4.6884972153400633e-03  4.6132773178665602e-03  4.3891633152986394e-03  4.4213505092274745e-03  4.2994379534799110e-03  4.1121804934306757e-03  4.1253335808778156e-03  3.9274986975544584e-03  4.3297768485135663e-03  3.8307886583318529e-03  3.8162021703234284e-03  4.0349261753015999e-03  3.1674662098890214e-03  3.2653655596674379e-03  3.1129823908702071e-03  3.3774974755531148e-03  3.7432983369736772e-03  3.3049242984683411e-03  3.5994244602674838e-03  2.8439299296810325e-03  3.0807000049291123e-03  3.1053013246169795e-03  4.1917982193717292e-03  4.2886172569799649e-03  4.5715185543812034e-03  3.4432219445358820e-03  4.4432217984306556e-03  4.3372972053777473e-03  3.3754818187929059e-03  2.9566335436054325e-03  3.0096528699220799e-03  3.3155514238462584e-03  3.4938471263186873e-03  4.6797552474920961e-03  4.5226803179615038e-03  3.2889641253463072e-03  2.8376812534745121e-03  3.9054263214195967e-03  3.5350792166596811e-03  4.2662519718077614e-03  3.6148558124564911e-03  3.4317495939255385e-03  3.8326813404923111e-03  3.6037106568974461e-03  2.6628014912987224e-03  2.7147530494383036e-03  3.1594496149508909e-03  3.7908217692870076e-03  4.5323598421442906e-03  4.5414581592092898e-03  4.2704488938038378e-03  4.2786380871722637e-03  3.0621464761331450e-03  4.0824392389934442e-03  4.6663749958060661e-03  2.6629729316406726e-03  4.2251696592065409e-03  3.2710293617877052e-03  4.3956418350643948e-03  3.8559971806749246e-03  2.9639439232365260e-03  3.0797212747404185e-03  3.5784172240689856e-03  3.7516857938441066e-03  2.2851562075797190e-03  2.6956236470891096e-03  2.3906030911528160e-03  2.6785225217296873e-03  3.3290053036190395e-03  2.5486908121869719e-03  2.7632227512414615e-03  2.1710477388877480e-03  2.3886854732321000e-03  6.5050756089105708e-05  1.6783291767468212e-04  1.6987988333903059e-04  7.4525153433806061e-05  2.1977771069057959e-04  1.2038319920035767e-04  1.3536534100537317e-04  1.5981369736443795e-04  3.1633963605543343e-04  7.2382157943996951e-05  3.0266627824296702e-04  8.0620391922399547e-05  1.6663014469666803e-04  1.5581818135083941e-04  2.6663469933234053e-03  2.5780937114556909e-03  3.5711052434652773e-04  3.7388549701709682e-04  3.6080876730321546e-03  1.8710627357896475e-04  1.9458524829665875e-04  1.3501990859644198e-04  8.1497401994188042e-05  6.9721904605490659e-05  6.0360732292885305e-05  1.3730583623484434e-04  8.3850853852209767e-05  1.0900227530852389e-04  1.0654332616924108e-04  5.8342243227149581e-05  2.1848432603545700e-03  2.0895937069443800e-03  2.0612585112767443e-03  1.9526932034338593e-03  1.9181781091699315e-03  1.9715927115355942e-03  1.8133296609294230e-03  1.8173302433298953e-03  1.6040131857811353e-03  1.6013490196650692e-03  1.3658926410485511e-03  1.3764575689223888e-03  1.3482328809348689e-03  1.5962570164318275e-03  1.3186111854502725e-03  1.5764833569109800e-03  1.2758267484265608e-03  1.5352601597785802e-03  1.2171013270637979e-03  1.4664385248265627e-03  1.1396100757033328e-03  1.3688025122014719e-03  1.6881317802178578e-03  1.5620525838545209e-03  1.8679883247683131e-03  1.7067793524002319e-03  1.4093416773731111e-03  1.5226307237335996e-03  1.2354839007988152e-03  1.8056426435228473e-03  1.5822034312450764e-03  1.8428426579106042e-03  1.5855229460983568e-03  1.3365833530813846e-03  1.3105351056816152e-03  1.5484293370565205e-03  1.2373315154575347e-03  1.4441863242510406e-03  1.0505054207020680e-03  1.8200430298644184e-03  1.1123026853909978e-03  1.1325304940265669e-03  1.0703867107389048e-03  2.0620136894280625e-03  2.0827907351763058e-03  1.0173064377702217e-03  2.0332519507766616e-03  1.8721373825935311e-03  1.9717248683212424e-03  1.7886216413365399e-03  1.8857082294806429e-03  1.6666165369156505e-03  1.7497102780280834e-03  1.5137400002455440e-03  1.5690267648760926e-03  1.3304599776906261e-03  1.2777205293180917e-03  1.3518892009429491e-03  1.5910616765258871e-03  1.3384235290540732e-03  1.5786231916658669e-03  1.0983777932902603e-03  1.2940082934267986e-03  1.5296717719684081e-03  1.0369100916114969e-03  8.6418406044709833e-04  1.1083605591894570e-03  1.2147529262883201e-03  1.4497735576393428e-03  7.9777538878087720e-04  1.7671003570066651e-03  1.6847112671551526e-03  1.3491048387630821e-03  1.5847913222618540e-03  1.2328558355526515e-03  1.4682386835491417e-03  1.8544683448445459e-03  1.6895560352166211e-03  1.3395976381445679e-03  1.5422830529466013e-03  1.8855376575689503e-03  1.7220734314990413e-03  1.3703781226216591e-03  1.5253169657780826e-03  1.8630912145284034e-03  1.6304758421270835e-03  2.0156928490661003e-03  1.6857513661930571e-03  1.9912215717244218e-03  1.3796848266649669e-03  1.6571746244235404e-03  1.9173734561411975e-03  1.5601512457871327e-03  1.7858937046715524e-03  2.1584373050393168e-03  1.9961979702578757e-03  2.3813158109152852e-03  2.1883566506585108e-03  1.7801769974500278e-03  1.9448847320501269e-03  2.3700442407668730e-03  2.1034936075868624e-03  2.5153212747123081e-03  2.2284038765656130e-03  2.6263991136763849e-03  2.3104774971521116e-03  2.6811356300278501e-03  2.3535166133544657e-03  2.6720421439421459e-03  2.3491282002583332e-03  2.6380049037881418e-03  2.3000687897209043e-03  2.5316974207139666e-03  2.2007201616474825e-03  2.3952252798618554e-03  2.0575696578392670e-03  2.1994516319967898e-03  1.9534374067563909e-03  1.8588422268201420e-03  1.9522396948038077e-03  1.9098623784161788e-03  1.3281439372275095e-03  2.0124320125966080e-03  1.7034300996060009e-03  1.5060811158620069e-03  1.3464809494472918e-03  1.1808199164753345e-03  2.5050388714991994e-03  6.4286442496872117e-04  1.6809310957687825e-03  9.3459787346565149e-04  1.1943183243312884e-03  9.9284965010811303e-04  1.0095987749363195e-03  6.7178807995854455e-04  1.8650099432245143e-03  2.2130253996777466e-03  2.6948516679171732e-03  2.8102284078121188e-03  2.2624955706679372e-03  1.9828050269491662e-03  1.6665716737443237e-03  1.6688307034772739e-03  9.8241078540667261e-04  1.1620696530824847e-03  1.0035694961242675e-03  1.1278759627810088e-03  2.9469707668233090e-03  1.5574591183818893e-03  9.9701312964677220e-04  1.9942792735186316e-03  1.9922759515130528e-03  1.6377370875777285e-03  1.3388043519113870e-03  1.8867452811981496e-03  1.5606683435838275e-03  1.8031678731087466e-03  1.5129606058821362e-03  1.6505291526739689e-03  1.4035549123337415e-03  1.5870819045403042e-03  2.1609290564228579e-03  4.7137320246366549e-04  8.6608438184868661e-04  8.3422385887395084e-04  2.0257044735894855e-03  1.1226314456037549e-03  6.8700089622732619e-04  7.8383679437957860e-04  6.4858781357145744e-04  2.0818293264331118e-03  2.0321579015358370e-03  4.4043121025198322e-04  2.0612731889365341e-03  2.1313984275497418e-03  1.9913673129010596e-03  2.1509177279299394e-03  1.2141750564716339e-03  8.0889350038708429e-04  6.9178585464250606e-04  8.5464176588879298e-04  1.9449555433066863e-03  2.0482469806719049e-03  9.8838015209928333e-04  8.5427848367207568e-04  2.7249536211921234e-03  2.8049114072971619e-03  8.3271051211190905e-04  9.9609749709128636e-04  6.6754012914570313e-04  7.8805189330412664e-04  2.2668623326052347e-03  2.4012486340137182e-03  1.9648081511010073e-03  2.0798803081937601e-03  3.8659396423060242e-05  8.2172338753573008e-04  2.5678386906832127e-03  1.7006664058047602e-03  1.4709936479657690e-03  9.0810224877423758e-04  4.6199231310205073e-04  2.2882912620652146e-03  2.2908019870925230e-03  9.1801823622854198e-04  8.7956505768763907e-04  1.1256598438614861e-03  2.8361584834989484e-03  2.2619239204814002e-03  2.2180311380465387e-03  1.2003299749655174e-03  8.5097540718355187e-04  1.2228831526821039e-03  8.4338743999935370e-04  1.2077355990590460e-03  1.0848852339054374e-03  8.0973380112906541e-04  2.0640212959263503e-03  5.1190131153341695e-04  5.8935702541014728e-04  2.8400076869666128e-03  2.8148130297480380e-03  2.6972916078173690e-03  8.3579564475649295e-04  5.9399694041247159e-04  3.8822758284085083e-04  8.4189609312864690e-04  5.0919515338570620e-04  3.0225872492209388e-03  1.2698306424334270e-03  9.4705178426670992e-04  9.6575043076084109e-04  8.7908380314863648e-04  6.6045125904323505e-04  5.3734885377997434e-04  1.1831303869352606e-03  1.1077141321928950e-03  9.4702723344470402e-04  8.1286172897785259e-04  6.6804567603965051e-04  7.7554201989641692e-04  5.2582498139526967e-04  5.9251739714248283e-04  3.7326574198807169e-04  6.5304360178017145e-04  4.0856821340906917e-04  6.2286028349716708e-04  7.4045783477408539e-04  2.6282991831591365e-03  2.4945242278661402e-03  2.5703925560857637e-03  2.3622731391772641e-03  2.2995424382946418e-03  3.0542484754536993e-03  2.9849746385380492e-04  1.9945405659081883e-03  6.3288574628175788e-04  7.5291364985500782e-04  4.8295420930759590e-04  3.1552571641958927e-04  7.7813093754870670e-05  8.9937299225906873e-05  3.6500403054404345e-05  2.6769452059777991e-04  3.6921722720570897e-04  4.9485849772650404e-04  4.2342276630776996e-04  5.6061711868666772e-04  6.3334798387301879e-04  4.9647663591802227e-04  5.4300877209447211e-04  3.1015315470200302e-04  2.4743857830614182e-03  2.4449409433638905e-03  2.4521868974908662e-03  5.3242944163933237e-04  5.9862120419808761e-04  2.2077613312771142e-03  7.9951426229749772e-04  1.1555315589433296e-03  7.1116220170051284e-04  1.0815591553930992e-03  6.0960991377163366e-04  9.8280361102001776e-04  1.1745744033280802e-03  8.6894702574402227e-04  2.7136785337439867e-03  2.3317831339255374e-03  1.0864982639314606e-03  8.3773688159003833e-04  7.8855023426777548e-04  5.7240559995670715e-04  5.4710306742501420e-04  2.4522920743256771e-03  2.3981917651082658e-03  2.3348941279502694e-03  2.5725036080519385e-03  1.8565275149937835e-03  3.0382837688670027e-03  2.1901304492568307e-03  2.2284913377700411e-03  2.3735536668268290e-03  2.2505448818730704e-03  2.3817068005333431e-03  2.2427224139109519e-03  2.4810260848577943e-03  2.3598686822899916e-03  2.5922892202179275e-03  6.6230173030326915e-04  2.8795057775317080e-04  2.2666864361751576e-03  2.2507339337931461e-03  2.3430882242238163e-03  2.1449860503760260e-03  2.2322242857137293e-03  5.4389995632271604e-04  1.8329668661815318e-03  1.8082595153287170e-03  2.3656887392926986e-03  2.2095308036240895e-03  3.9993085822369480e-04  2.3066226711350277e-03  7.3727690353067143e-04  2.3753356412359191e-03  1.0961496776182272e-03  2.4291779842103766e-03  2.9291108773755918e-03  3.2223306710104749e-03  1.7096473490411403e-04  9.8424816659168453e-04  2.1464927103393800e-03  1.7458777021735286e-03  3.6314473041997183e-04  3.0547462779248680e-04  1.6213102901351217e-04  2.3657863632972997e-03  2.4804241060893142e-03  2.7422767964896885e-03  2.6151565309536062e-03  2.8746328900912197e-03  2.7373400906002062e-03  2.9889979659217607e-03  3.1261966172165447e-03  3.2071962430057781e-03  3.3368719792689940e-03  2.4384360641595344e-03  2.6091610579620024e-03  2.5516616865144904e-03  2.2281375110423775e-03  2.2837582745291653e-03  1.6559618804549174e-03  1.7733175733250313e-03  2.1144703748093830e-03  3.4819402195645837e-03  3.2129129228195123e-03  2.7191602445635387e-03  2.5944710003970831e-03  2.3110969971922722e-03  7.6566657939213033e-04  2.5959890034325151e-03  2.9050692107193059e-03  3.1499142342338473e-03  3.2403772236563625e-03  3.4181056929308779e-03  3.4912833348200363e-03  3.3284565506723181e-03  3.5387093293593025e-03  3.6265762768302209e-03  3.3762561409948688e-03  3.5565930282931194e-03  3.3665658863633497e-03  3.5520775065698931e-03  3.3161145860160918e-03  3.1718868935127703e-03  3.0616131210349884e-03  3.6987335021106014e-03  1.8466995949254850e-03  1.3577176476598232e-03  2.5038946136547295e-03  1.6731461408017465e-04  1.2808879396369196e-04  2.0529765083163818e-03  3.4147400970040615e-04  2.0577821006547252e-04  2.8272979202431632e-03  1.8792378395798438e-03  2.9055079459827334e-03  1.9290023875005434e-04  3.4321088018205237e-03  3.6383315517860747e-04  1.6767828206741507e-04  1.1114543964120091e-04  1.3299580832625344e-04  4.0988778851819735e-04  3.0998237943872348e-04  1.4240139061604218e-04  5.5507512178564714e-04  5.2975587677921794e-04  1.6603691500482174e-04  3.9832502162235570e-04  1.9135300986471489e-03  1.4448452957674165e-04  1.6266329789167708e-04  2.5173072491414651e-03  2.6654474651144006e-03  1.4683258874782807e-03  2.5697773475857557e-04  6.8598313014937845e-05  3.1200806245258570e-04  2.2072028167573459e-04  2.1495301844859441e-03  8.6613252673188644e-04  3.3956184269006855e-04  3.2309396075728351e-04  3.6742382122760759e-04  8.1892776377199129e-04  7.4993841425411193e-04  3.5098386915589382e-04  7.4760416679684296e-04  3.0092371534221974e-03  2.4143272058068923e-03  1.6826647368818165e-04  5.0341647522253181e-04  1.0094730077225111e-04  7.3553060476332240e-05  2.3903751838464570e-04  2.0756112293901396e-04  2.8758999627344069e-04  1.8080390620032127e-03  2.4578666537831036e-03  4.7796770399127146e-04  4.1095343935822502e-04  7.6150035685482859e-04  2.0379851168626350e-03  2.5849292174967447e-03  1.6749390020619613e-04  4.7764211049895446e-04  4.4438645215004046e-04  4.6157197286882438e-04  1.6174085090380269e-04  4.8344043816225400e-04  1.8299342506555722e-04  4.0466097619284628e-04  1.2004748341652215e-03  1.5523560066988047e-04  4.5105318846926871e-05  1.0648214222861074e-04  3.4352