<?xml version="1.0"?>
<VTKFile type="UnstructuredGrid"  version="0.1"  >
<UnstructuredGrid>
<Piece  NumberOfPoints="1078" NumberOfCells="2058">
<Points>
<DataArray  type="Float64"  NumberOfComponents="3"  format="ascii">0 0 0  0 1 0  1 1 0  1 0 0  1.1 -0.1 0  -0.1 -0.1 0  1.1 1.1 0  -0.1 1.1 0  0.5404834758657044 0.5939573339782118 0  0 0.9499999999997918 0  0 0.8999999999995836 0  0 0.8499999999996529 0  0 0.7999999999999998 0  0 0.7500000000003466 0  0 0.7000000000006934 0  0 0.6500000000010401 0  0 0.6000000000013869 0  0 0.5500000000017335 0  0 0.5000000000020587 0  0 0.4500000000018723 0  0 0.4000000000016644 0  0 0.3500000000014564 0  0 0.3000000000012483 0  0 0.2500000000010403 0  0 0.2000000000008322 0  0 0.1500000000006241 0  0 0.100000000000416 0  0 0.05000000000020799 0  0.04999999999989965 0 0  0.09999999999981467 0 0  0.1499999999997036 0 0  0.1999999999995579 0 0  0.2499999999994121 0 0  0.2999999999992664 0 0  0.3499999999991206 0 0  0.3999999999989749 0 0  0.4499999999988292 0 0  0.4999999999986943 0 0  0.5499999999988151 0 0  0.5999999999989468 0 0  0.6499999999990784 0 0  0.69999999999921 0 0  0.7499999999993417 0 0  0.7999999999994734 0 0  0.8499999999996051 0 0  0.8999999999997368 0 0  0.9499999999998684 0 0  1 0.04999999999989965 0  1 0.09999999999981467 0  1 0.1499999999997036 0  1 0.1999999999995579 0  1 0.2499999999994121 0  1 0.2999999999992664 0  1 0.3499999999991206 0  1 0.3999999999989749 0  1 0.4499999999988292 0  1 0.4999999999986943 0  1 0.5499999999988151 0  1 0.5999999999989468 0  1 0.6499999999990784 0  1 0.69999999999921 0  1 0.7499999999993417 0  1 0.7999999999994734 0  1 0.8499999999996051 0  1 0.8999999999997368 0  1 0.9499999999998684 0  0.9499999999997918 1 0  0.8999999999995836 1 0  0.8499999999996529 1 0  0.7999999999999998 1 0  0.7500000000003466 1 0  0.7000000000006934 1 0  0.6500000000010401 1 0  0.6000000000013869 1 0  0.5500000000017335 1 0  0.5000000000020587 1 0  0.4500000000018723 1 0  0.4000000000016644 1 0  0.3500000000014564 1 0  0.3000000000012483 1 0  0.2500000000010403 1 0  0.2000000000008322 1 0  0.1500000000006241 1 0  0.100000000000416 1 0  0.05000000000020799 1 0  -0.1 1.05000000000004 0  -0.1 1.000000000000079 0  -0.1 0.9500000000001624 0  -0.1 0.9000000000003032 0  -0.1 0.850000000000444 0  -0.1 0.8000000000005848 0  -0.1 0.7500000000007256 0  -0.1 0.7000000000008665 0  -0.1 0.6500000000010508 0  -0.1 0.6000000000012352 0  -0.1 0.5500000000014196 0  -0.1 0.500000000001539 0  -0.1 0.4500000000014195 0  -0.1 0.4000000000013 0  -0.1 0.3500000000011588 0  -0.1 0.3000000000010178 0  -0.1 0.2500000000008986 0  -0.1 0.2000000000007579 0  -0.1 0.1500000000006174 0  -0.1 0.1000000000005272 0  -0.1 0.05000000000040083 0  -0.1 2.671196597248127e-13 0  -0.1 -0.0499999999998666 0  -0.0500000000000906 -0.1 0  -1.730560139634463e-13 -0.1 0  0.04999999999975802 -0.1 0  0.09999999999961506 -0.1 0  0.1499999999994613 -0.1 0  0.199999999999302 -0.1 0  0.2499999999991446 -0.1 0  0.2999999999990088 -0.1 0  0.3499999999988296 -0.1 0  0.3999999999986936 -0.1 0  0.4499999999985143 -0.1 0  0.4999999999984002 -0.1 0  0.5499999999985247 -0.1 0  0.5999999999986493 -0.1 0  0.6499999999987955 -0.1 0  0.6999999999989417 -0.1 0  0.7499999999990659 -0.1 0  0.7999999999992116 -0.1 0  0.8499999999993573 -0.1 0  0.8999999999994526 -0.1 0  0.949999999999584 -0.1 0  0.9999999999997226 -0.1 0  1.049999999999861 -0.1 0  1.1 -0.0500000000000906 0  1.1 -1.730560139634463e-13 0  1.1 0.04999999999975802 0  1.1 0.09999999999961506 0  1.1 0.1499999999994613 0  1.1 0.199999999999302 0  1.1 0.2499999999991446 0  1.1 0.2999999999990088 0  1.1 0.3499999999988296 0  1.1 0.3999999999986936 0  1.1 0.4499999999985143 0  1.1 0.4999999999984002 0  1.1 0.5499999999985247 0  1.1 0.5999999999986493 0  1.1 0.6499999999987955 0  1.1 0.6999999999989417 0  1.1 0.7499999999990659 0  1.1 0.7999999999992116 0  1.1 0.8499999999993573 0  1.1 0.8999999999994526 0  1.1 0.949999999999584 0  1.1 0.9999999999997226 0  1.1 1.049999999999861 0  1.05000000000004 1.1 0  1.000000000000079 1.1 0  0.9500000000001624 1.1 0  0.9000000000003032 1.1 0  0.850000000000444 1.1 0  0.8000000000005848 1.1 0  0.7500000000007256 1.1 0  0.7000000000008665 1.1 0  0.6500000000010508 1.1 0  0.6000000000012352 1.1 0  0.5500000000014196 1.1 0  0.500000000001539 1.1 0  0.4500000000014195 1.1 0  0.4000000000013 1.1 0  0.3500000000011588 1.1 0  0.3000000000010178 1.1 0  0.2500000000008986 1.1 0  0.2000000000007579 1.1 0  0.1500000000006174 1.1 0  0.1000000000005272 1.1 0  0.05000000000040083 1.1 0  2.671196597248127e-13 1.1 0  -0.0499999999998666 1.1 0  0.5717531851973607 0.5881453148172486 0  0.5990626675494776 0.5686836720709224 0  0.6091812008343143 0.5368084212513945 0  0.6110259276872059 0.5049863639904074 0  0.6099357485672817 0.4735877947997766 0  0.6059072612535762 0.4424930303289894 0  0.5986680771351065 0.4116080536579897 0  0.5874960560596805 0.3811741035864152 0  0.5700842432020391 0.3527224388416327 0  0.5429979644610757 0.3330180220327489 0  0.5117944355955711 0.3321166797728164 0  0.4830409214252683 0.3398508805711538 0  0.4561059449736977 0.3504089736452084 0  0.4301959060823226 0.3625597554885398 0  0.4050601715817522 0.3757281749798351 0  0.380537306613201 0.3896625212875909 0  0.3564878623680245 0.404203855417074 0  0.332981699478172 0.4194146524875606 0  0.3100232915429522 0.4353565608104591 0  0.2877268854050544 0.4521593069319979 0  0.2666331177265249 0.4704121158471251 0  0.2489129123606486 0.4922044323230413 0  0.2542791347343145 0.5189683307711452 0  0.2802595199851591 0.5366282285005938 0  0.3079914420632034 0.5496509709160656 0  0.3361252214448593 0.5604116211383999 0  0.3644847046547808 0.5695888600575999 0  0.3930322612016865 0.5774144766444644 0  0.4217885650237279 0.5839160692952636 0  0.4508313227984731 0.5890500277149506 0  0.480188803004823 0.5927264092487335 0  0.5100059914213311 0.5946245023387126 0  0.58052481952987 0.4606422451007206 0  0.4313885999820049 0.3960563193183174 0  0.4723088001939594 0.5604368741164623 0  0.3591942705042658 0.4360255545980628 0  0.4093625616614737 0.5525580223390276 0  0.4838327086943954 0.3737005552981107 0  0.5277184177810583 0.5644208043616999 0  0.3537183759444724 0.5376893654140285 0  0.5665420907498406 0.4019107391118505 0  0.3148928456313336 0.4676722022371113 0  0.5811388703896843 0.5210958251678161 0  0.5360451458830239 0.3583219772461364 0  0.3001666355800765 0.5168536130509236 0  0.2742398742418019 0.5030365626596276 0  0.5770554152539747 0.5530126184699425 0  0.5484829516641618 0.5378912185682599 0  0.5562075549818324 0.5034436887616741 0  0.5270495416414125 0.5149092235448456 0  0.5315009287462246 0.4834317912880099 0  0.5029338516817619 0.4939049765148961 0  0.5073440283004109 0.4615129078248679 0  0.4787718281914545 0.4720645268761298 0  0.4824824629416382 0.4397094329424002 0  0.4543690568410912 0.4498714953909271 0  0.4506098939929963 0.4824254343331016 0  0.426599986020526 0.4597885811736248 0  0.5110291106793793 0.4293565756424385 0  0.423132615512438 0.4920450934084848 0  0.4004309409899346 0.4696508323339957 0  0.3972643702080937 0.5003559460798791 0  0.4460319100145079 0.5152631706705565 0  0.4045063104417051 0.4382640075002155 0  0.374756879293718 0.4789594419224547 0  0.4954136223460331 0.529121397047295 0  0.4846760260924445 0.4074544983299295 0  0.5106731939312114 0.3970621971799547 0  0.5347139072241764 0.4527836495621805 0  0.4743725952637405 0.5047678822763625 0  0.5426567755929953 0.4217985815729283 0  0.4570264735696304 0.4178542963659479 0  0.4301291133247015 0.4280838645502771 0  0.4412939367835572 0.5509252773186081 0  0.3814306839926397 0.5460105039779408 0  0.5008002223594781 0.5636272357833537 0  0.3361169400013671 0.4505533551834528 0  0.3448876735714599 0.48257989513246 0  0.4572957453637566 0.3847083972026112 0  0.3706123729603687 0.5122298361189154 0  0.3267739456114621 0.529178431242642 0  0.2939442665045799 0.4847606155609197 0  0.4054663642473931 0.4076492787113318 0  0.5757346063905296 0.4309830410185868 0  0.5828761956558862 0.4900678453346178 0  0.4203729241501835 0.5228415281816785 0  0.3190953763446838 0.498699666019709 0  0.5598956426834634 0.3773555716591376 0  0.3815331254886205 0.4206974241141008 0  0.5107660325807277 0.3656695182715807 0  0.4673211975811521 0.5320059570566642 0  0.5384235948268192 0.3896994522368565 0  0.5577325469972766 0.4739062454263032 0  0.3430899111386617 0.5121122052306749 0  0.3804838569311235 0.4499395980035715 0  0.5190135019357123 0.5409049210159779 0  0.5524571675697734 0.5678375776426194 0  0.3958711661237942 0.5268333939927546 0  0.5583428689527662 0.4480494003788903 0  0.3569360792001645 0.460030510986837 0  0.6078623764504515 0.3905383422872862 0  0.6279132245459362 0.488844689269858 0  0.3737439666869804 0.5903482568978796 0  0.5544721406356402 0.6080728033905691 0  0.9914622968654825 0.7108521560172241 0  0.6527220503634936 0.9930316375575711 0  0.4613533774317192 0.6090482843368292 0  0.9969840003924345 0.5454808396863287 0  0.9850947110437283 0.2805174699410615 0  0.2918760003704618 0.9803014617725014 0  0.3574695465548858 0.3787631090577754 0  0.4330263233134271 0.337006522738713 0  0.4488558187634232 0.9901529269773289 0  0.2885865906396415 0.5587894457867486 0  0.06836479116559331 0.7559731977543073 0  0.7102495428594664 0.05576760298674863 0  0.2851229402737325 0.4260961443285764 0  0.6207670882744337 0.5543922609129753 0  0.8092765305593455 0.9919391817259247 0  0.2510255643348623 0.06136581363276445 0  0.07253599421841786 0.2508766844876611 0  0.2441393345609806 0.4646079201705268 0  0.564155561276476 0.06377568974770031 0  0.4099766375081771 0.06138466176609622 0  0.8514090314546759 0.04904899627332165 0  0.232463834806533 0.5063918881696488 0  0.4921057511616381 0.3192392293523589 0  0.07041885380931638 0.6033596993137911 0  0.9945187035740032 0.8568647268438836 0  0.0701884279619637 0.3493881901195742 0  0.6125521319460894 0.581385032566175 0  0.634819465142655 0.5693138763992084 0  
[...]
<PointData  Scalars="v"> 
<DataArray  type="Float64"  Name="v"  format="ascii">0.0000000000000000e+00  4.6423619106770832e-20  4.4709442931677334e-20  4.1501608145677986e-20  -2.1021646387617360e-21  -8.2215748997056204e-22  -1.7435129802837187e-21  -1.6997294908133855e-21  2.3062208561764094e-02  8.8630566492929007e-20  -1.4132306064089080e-19  2.6003110857711767e-19  8.3155082139019730e-19  5.1894932877726260e-19  -1.4581044478999395e-19  9.1706191172349818e-19  1.0074772272271352e-18  4.5296849149387982e-19  4.2435798743091441e-19  2.3509399156821704e-18  2.0084307882502922e-18  -6.7159989172743228e-19  1.4149713622823170e-19  2.4127368181717571e-19  -1.0358848257893983e-19  -2.4417909787133882e-19  3.0882386827587747e-19  -4.2971853807169914e-20  -3.0776021510215740e-20  2.2551634229673394e-19  -5.2139073569135718e-19  1.5193054402673794e-19  7.6631328449990683e-20  3.5430777067017095e-19  1.6498326556007572e-18  7.9375177852954091e-19  5.0204463239168733e-19  1.8851988279422011e-19  -5.4149996002469344e-19  1.0001080585308556e-18  -3.7868003774768037e-19  -5.2284672540091565e-19  -4.3666778278190937e-19  1.2358832377091081e-19  1.5264694860054601e-19  -1.1074066626750368e-19  -1.2996917904968014e-19  7.8616738349777650e-20  8.5886049104087397e-20  1.4239717078450367e-19  -5.9340071770040453e-20  -4.3220148055722144e-19  2.8979447537669863e-19  -1.6662958240780927e-19  3.8729557136106655e-19  5.6953001853406849e-19  1.2819798276655957e-19  -1.4142602798332449e-19  -5.7994504336013652e-20  -3.7927746735190071e-20  -2.1438520433156487e-19  5.2849440015512598e-20  -1.3664705424163813e-19  1.7815318544407759e-19  -6.4668253680430687e-20  -5.0183845315828678e-20  5.3829078389345983e-20  -5.0743428997330389e-20  2.2751652402657861e-19  -1.3898194049663830e-20  -7.5776789308886305e-20  3.9260848072817847e-19  -4.4554376159206153e-20  2.8225587189785413e-19  5.1329178598136730e-19  9.5947488256219748e-20  2.1811573931135260e-19  2.2981036669175514e-19  -2.8784428083683854e-20  -1.5651366180531461e-20  -4.2386141367551035e-20  -1.3927471801809493e-19  1.1428303123844078e-19  7.9871337095306031e-20  -1.8829214535714571e-20  -1.2370604554395282e-21  1.1438031440664132e-20  -1.1377889394900268e-21  0.0000000000000000e+00  3.8195187775973574e-20  1.0784947160209456e-19  7.8526117914560862e-20  1.0282605731365704e-20  1.0417870015942219e-19  1.5128740576581736e-19  4.6549479378065466e-20  1.0746516164389367e-19  3.2210950955965684e-19  2.4363692948182345e-19  -1.7540339127050144e-20  -4.9633151291682321e-21  3.9069588414542199e-20  -1.4298698473815078e-20  -1.9482433085196025e-20  2.4896971441881818e-20  6.6965696761306748e-21  -6.1773479494089459e-21  1.8129944565725998e-21  1.1115463955001452e-21  -2.6178369412259382e-21  1.1731768226114621e-20  3.8948753387315473e-22  -2.9785690391335806e-20  -3.4065027848632715e-20  -6.0294944303449801e-21  5.2135348449254063e-20  1.6650528785983925e-19  1.4979807863230727e-19  7.5115384721613654e-20  -2.2254615338849389e-20  -2.9465045492731563e-20  7.8149212840831354e-20  -9.8895558739068783e-21  -1.0296522244718923e-19  -3.8203990714132283e-20  5.9852495011679217e-21  2.2406376731086681e-20  -1.6049377549490827e-20  -1.2055914136566401e-20  7.7988404425982420e-22  2.9617884579627645e-21  -1.4997475988017592e-22  6.0583153038246634e-21  9.4892724117841435e-21  1.4018159451216175e-20  2.4396286690201336e-20  -2.2279557733055890e-20  -3.0698890209642244e-20  -4.9588382796417639e-21  -1.6410239471302455e-21  4.6866599159095097e-20  7.9103300221335338e-20  1.2184915064775044e-20  -2.1574608210149140e-20  -3.4741251680042670e-21  -8.8535022907669406e-21  -1.9484328870523047e-20  -9.0318500677595596e-21  5.5748463534156011e-22  1.2319875049798861e-20  -1.2385416115379512e-21  -8.1350396781350142e-21  4.4794669152751040e-21  1.5672151416676986e-21  -3.6456735048478425e-22  8.0827624416819580e-21  2.1641755569980331e-21  2.9811467599264023e-21  2.4758358737372819e-20  -1.3144695531761380e-20  1.4748607093691357e-21  3.4352749177392778e-20  1.1242740678790004e-20  3.7440036638540723e-20  6.2292729940266929e-20  2.4661616372926357e-20  3.0940462057957728e-20  1.8797897406132621e-20  -9.1037310595299409e-21  -1.9332944133144331e-22  -1.1148804820948424e-20  -1.6030601340429808e-20  1.7864328957410071e-20  1.0229212594661384e-20  1.5938579601617156e-22  2.8548991112460729e-21  2.1411398586289001e-21  2.2824792673736605e-02  2.2630777654838299e-02  2.2693230658247385e-02  2.2710518373391452e-02  2.2549101777955743e-02  2.2197463147982384e-02  2.1662588810758832e-02  2.0948311576940194e-02  2.0136883480980819e-02  1.9509442318041515e-02  1.9451654212284702e-02  1.9617216794795764e-02  1.9729712107121072e-02  1.9711899726453735e-02  1.9550565673123403e-02  1.9227094701242030e-02  1.8746076889404370e-02  1.8114837482416490e-02  1.7347946362647089e-02  1.6468651737788127e-02  1.5538780314243477e-02  1.4753587442673775e-02  1.5183238034659905e-02  1.6668150136782991e-02  1.8093391574073081e-02  1.9380261100525445e-02  2.0494048631540585e-02  2.1426393736759086e-02  2.2168048742238683e-02  2.2705356590124327e-02  2.3030981411869197e-02  2.3160625699155855e-02  2.3714912603731843e-02  2.1719098446902202e-02  2.4174051919833683e-02  2.0344514495890149e-02  2.2883678981105136e-02  2.1789476510112513e-02  2.4307956461065119e-02  2.0890516187929364e-02  2.2578777112191240e-02  1.8724728718270561e-02  2.4045719007226574e-02  2.1246681717803903e-02  1.8222822476100509e-02  1.6775602613269130e-02  2.3848816316226439e-02  2.4506195062794799e-02  2.4559992947987132e-02  2.4894105928699988e-02  2.4785742771308229e-02  2.4950606680300764e-02  2.4604971471462272e-02  2.4559148032049151e-02  2.4030855768745869e-02  2.3819795939394209e-02  2.4241514799199535e-02  2.3336937377267369e-02  2.3928527353788795e-02  2.3625026363221585e-02  2.2653880052854094e-02  2.2799298321915053e-02  2.4208052956373356e-02  2.2159952186127790e-02  2.1759286781956391e-02  2.4819245351816243e-02  2.3077256463500326e-02  2.2840435638707954e-02  2.4330660086271917e-02  2.4725969967550644e-02  2.3520725933655073e-02  2.3007987567330464e-02  2.2686555466783734e-02  2.3783202537380733e-02  2.1974623497254313e-02  2.4350477045232178e-02  1.9571749657766473e-02  2.0407100925997429e-02  2.1861327910784437e-02  2.1755789937886169e-02  1.9619965404286489e-02  1.7762787392920226e-02  2.1358260661578619e-02  2.3240505840398003e-02  2.3975480124399807e-02  2.3504105376344595e-02  1.9178712704070334e-02  2.1796968155527018e-02  2.0888656710971665e-02  2.1601922305009361e-02  2.4476060618577187e-02  2.2476734212375473e-02  2.4340437594351044e-02  2.0454655984895202e-02  2.1521906293007667e-02  2.4696688439953148e-02  2.4009521950190901e-02  2.2665238243545681e-02  2.3917613628532331e-02  2.0696747334089560e-02  2.0618036924610804e-02  2.1923392226214006e-02  2.0322862642358445e-02  2.2357106034623545e-02  4.8143507028056978e-04  4.3966823674802791e-04  2.2180164138958958e-02  2.1484009237525577e-04  7.9661665952613357e-04  1.0743129091809044e-03  1.8027817649135375e-02  1.8724237397604201e-02  6.8871244558677371e-04  1.6891874564157361e-02  3.1235425785691305e-03  2.9878051238618089e-03  1.5983913314050451e-02  2.2003012951155625e-02  3.1578150485976842e-04  2.7490259414262893e-03  3.1827471136993838e-03  1.4336770015524703e-02  4.1930846280839882e-03  3.8518537563235369e-03  1.4958572652410277e-03  1.3933665755930880e-02  1.8631863775012081e-02  4.3463393379730188e-03  1.6634386659797944e-04  3.9240470279513738e-03  2.1926158549853979e-02  2.1612707228619750e-02  2.1425904866164108e-02  2.0946594140334361e-02  2.0653102030568495e-02  2.0022960393973513e-02  1.9579572267945523e-02  1.8821779194187892e-02  1.8206609308515687e-02  1.8928025104477036e-02  1.9150518042885402e-02  1.7389614595847803e-02  1.7965407427590240e-02  1.7137195423370468e-02  1.6365838991457417e-02  1.6731647756281678e-02  1.5095378213403893e-02  1.4668809466763386e-02  1.5273686027378485e-02  1.6832579592032063e-02  1.5161059462011224e-02  1.6645705287585012e-02  1.4788775265528869e-02  1.6181597826661443e-02  1.4199209883234776e-02  1.5494494289106204e-02  1.3358732190447212e-02  1.2861742142653914e-02  1.3406663773336918e-02  1.4563700717993878e-02  1.3266378151209254e-02  1.1498339305578012e-02  1.0959797565603413e-02  1.2409283670384458e-02  1.3411196107602953e-02  9.5796859275108157e-03  9.0328349961922034e-03  1.0171545041357711e-02  1.5471862177381057e-02  1.4160356822507072e-02  1.2110962902762692e-02  1.2701098597262624e-02  1.0692497527741015e-02  8.2070247753469119e-03  9.0868997154484980e-03  1.4592284469014357e-02  1.2971276593400440e-02  9.8765873869063707e-03  1.7404802140897884e-02  1.4660703564663726e-02  1.2877466823519488e-02  1.1159250320221368e-02  7.1352940565077580e-03  1.5394445241720732e-03  6.3229828095454658e-03  5.5591262771818276e-04  1.3425781310360554e-04  5.7959453256263137e-04  7.8073061731101132e-04  1.6174308097600450e-02  1.4302697351053145e-02  1.3160699018674539e-02  1.3430169532595786e-02  1.2062801850048356e-02  1.1812408889084348e-02  1.2209898765993144e-02  2.1196131297392735e-02  7.9716799916002053e-03  1.1224869151775903e-02  1.0131835106891121e-02  2.0307872972243428e-03  1.0945953839317976e-02  7.9890981255246064e-03  1.4358077073470020e-02  1.3669735756205628e-02  1.2284313623637156e-02  5.3426494795873799e-03  9.3306073289467564e-03  1.8211218495877764e-02  1.0554064454116042e-02  1.0577988367508543e-02  1.1455323763777319e-02  9.8362379840880344e-03  7.7449382304386897e-03  8.1614520261518112e-03  1.0252735959470315e-02  8.4127910372461187e-03  1.0498633140702714e-02  8.5213628449973891e-03  1.0582330866547612e-02  8.4115286158687828e-03  1.0445232774269335e-02  8.1864845816541909e-03  1.0117376375828858e-02  1.2359798054207663e-02  1.1929262939098705e-02  9.7052683230523414e-03  1.1354061905637180e-02  1.3520347566634446e-02  1.2821169400940113e-02  1.0646009183639555e-02  1.1930774972797143e-02  9.8056124344083444e-03  1.0826643346399979e-02  1.2919554357055043e-02  8.8759191618550930e-03  1.1581926919255350e-02  1.8941576194464564e-02  1.3557564598776684e-02  1.5166720612573469e-02  1.2013254845860256e-02  1.3842481967694935e-02  1.2079742289039696e-02  1.3766394968955334e-02  1.0228571963338104e-02  8.5131408727922731e-03  1.5722330311734433e-02  1.1780873807336301e-02  1.3642000144105217e-02  8.7879578633780053e-03  7.7580049378566107e-03  6.3197637546133553e-03  2.1455660725205381e-04  4.5656396829487416e-03  3.7300603313843422e-03  1.2559383157890822e-02  1.8439599586956790e-02  1.8141014485681509e-02  1.7549090073814794e-02  1.8600774911512710e-02  4.1925098930063170e-03  6.1382869150252055e-03  1.1450192564576453e-02  9.8859398068119626e-03  1.0999741204191888e-02  2.1062836969503489e-02  5.9127793516159498e-03  9.7519508248914699e-03  7.7843640454863267e-03  8.7054289571618718e-03  9.7238425811145973e-03  8.9288833178022657e-03  1.1204496808581023e-02  1.2647456287015180e-02  1.0439859632822535e-02  7.2537518101063667e-03  6.1448937983545901e-03  5.8584293708336234e-03  8.2160547922284447e-03  1.8534134756272946e-03  8.0440909806723439e-03  1.0633240018307439e-02  9.1297051083444342e-03  1.0792315004096319e-02  1.3773027199995663e-02  1.7570147538725277e-02  5.7651580601798848e-03  7.4022249443691547e-03  7.6325577429841359e-03  5.5044439792259628e-03  3.0290542317135583e-03  3.5117496539981939e-03  2.4179219072160696e-03  1.9250314822918613e-02  5.8056625578712523e-03  5.9186652881607583e-03  1.0638713155085468e-02  1.4888010859518897e-02  1.5554763271951936e-02  1.6794968615773568e-02  1.7373104987754420e-02  1.8475983346583461e-02  1.8935187572747720e-02  1.7773609642227964e-02  1.9873144505996473e-02  1.9307005861926345e-02  2.0458635132043084e-02  1.9817139224509731e-02  1.8548645820658901e-02  1.9074220358023176e-02  1.0241759108865690e-02  1.1634402607936132e-02  8.7103672490431699e-03  5.1301336554234638e-04  6.4956907078262890e-04  1.8034158866131821e-02  1.4042301002262862e-02  1.3853777311651010e-02  1.2773417493606110e-02  1.0518502168826941e-02  1.1607267268318847e-02  1.3748666984462218e-02  1.2513893162680976e-02  1.4856259817450283e-02  1.3278425043846593e-02  1.5227436774188403e-02  1.3699447785982559e-02  1.1714144116800671e-02  1.2073222613746052e-02  1.3923913001323422e-02  1.2203991403584025e-02  1.3852445715426497e-02  1.2043824910553988e-02  1.3471916722012514e-02  1.1568256683142424e-02  1.0155583313111232e-02  1.2787546214456411e-02  1.0783928640857145e-02  9.9731343947385958e-03  1.1791731859189114e-02  9.7079702680812896e-03  8.8386757957409547e-03  1.5819982801842873e-02  1.4672414824643203e-02  1.0106878671926627e-02  1.9161615411415582e-02  7.5930325649499119e-03  3.8599590420716795e-03  4.0909911344999758e-03  4.1654578560894415e-03  1.0557176814603277e-02  1.2814861673968409e-02  8.2631121503373602e-03  9.9662026603440004e-03  8.6044432032864413e-03  4.7815245055145969e-03  1.7751937652116027e-02  1.6520469493054375e-02  1.6789793444561840e-02  2.0721004520834484e-02  2.0195769977204379e-02  4.4139707480360573e-03  2.4943330013208571e-03  1.8310270752937133e-02  1.6041638985472761e-04  7.7211024554956435e-03  6.4837256793143887e-03  5.4477703441903006e-03  4.3748213575643029e-03  1.2482179186854578e-02  1.6843477583629973e-02  9.4258863615986066e-03  7.6089509285480013e-03  8.1759802216878515e-03  4.3715198679821930e-03  4.3420772760283562e-03  3.0759742644900917e-03  2.7975782313401794e-03  2.8479387867085867e-03  2.0855996869897360e-03  2.2959438718217723e-03  3.8909231634086617e-03  3.6288729178075262e-03  5.5662183580044398e-03  3.3232249865023985e-03  5.1478624072552413e-03  2.9823682457224055e-03  4.7094363928169500e-03  1.5024218487293847e-02  1.5108352929384608e-02  1.3724643494619609e-02  1.6335368734135065e-02  1.6248809477683375e-02  1.7546452032876921e-02  1.7344891939967997e-02  1.8576016349693639e-02  1.8309479177740784e-02  1.9501518988807691e-02  1.9071612200950782e-02  2.0260416913002354e-02  1.9780927993335088e-02  2.0863087493000761e-02  2.0214861656648916e-02  2.1334821264731407e-02  2.0416881880053830e-02  2.1281819516318422e-02  2.0291375694166152e-02  2.1137547456495157e-02  1.9180703668787970e-02  2.1866147534303194e-02  2.1665906818685056e-02  2.0826720717305201e-02  2.1345416773128258e-02  7.3541212159493113e-03  4.5511634519243846e-03  9.6136362588186523e-03  6.8738403797914717e-03  2.1142544969428516e-02  1.7919894688192793e-02  8.7454233273779689e-03  8.7689775889329621e-03  2.9793955008294245e-03  1.2540485670431301e-02  1.7110361406588968e-02  6.0446927307773353e-03  6.4979598974838956e-03  1.6839397248904851e-02  1.7705053925892285e-02  9.1645491069272771e-03  1.0608813999742218e-02  1.8561462236787094e-02  1.3710481695795999e-03  8.5583620960044370e-03  3.9646506560161165e-03  1.0988361838432548e-03  2.1954920354341271e-02  1.3113773234253194e-03  1.7068574556177548e-02  5.8955186411065053e-03  6.4903155971629328e-03  8.4655347346808928e-03  6.7139892890926318e-03  4.6040375036079505e-03  2.1234424933955654e-02  5.7482086124903426e-03  2.0008706724358172e-02  1.8511021123174442e-02  2.2132894791279743e-02  1.6285918037277979e-02  3.0910076349485393e-03  1.7252967920383393e-03  2.2358840674483030e-02  2.2567977341390903e-03  4.0585991591434176e-03  2.1138482813635412e-03  2.0451411170964467e-02  2.1986674386843333e-02  2.1599599373226919e-02  1.7477676781234054e-02  1.6510612287724238e-02  1.8015683145051833e-02  3.2594804554807264e-03  4.2475279660531690e-03  2.3686022887187534e-03  3.3161223454134959e-03  1.7035463650754722e-02  2.6531874402525692e-03  4.2152591805858265e-03  2.2576191552338130e-03  3.6112030410423426e-03  5.5004934568730632e-03  4.6841371765478828e-03  2.9587725700389112e-03  3.6999035995764098e-03  5.4340978032451489e-03  2.2145010615264317e-03  4.1218094341228285e-03  5.7888487683272543e-03  4.0627486774519389e-03  5.6594137897499853e-03  7.2388651702447876e-03  2.0993867189384712e-02  1.5159928386643517e-02  1.5008437239341485e-02  1.5750448387914992e-02  1.4048164607771925e-02  1.6338935168988378e-02  1.5522969168917159e-02  1.6857153868757645e-02  1.6386042361686913e-02  1.5653929985147606e-02  1.6810653146116745e-02  1.7539832132421572e-02  1.9928347531514626e-02  7.5823187446172093e-03  5.9527185181882684e-03  7.0508558639219843e-03  6.6480342365987559e-03  4.2371520431633281e-03  1.5300998252461485e-02  2.1239227777558222e-02  3.9759810175712436e-04  2.4670976460719331e-03  1.4042958639221993e-02  3.5994475488716846e-03  5.8653510568090934e-03  4.9388242889376660e-03  2.6004986062482154e-03  4.0913133078411519e-03  6.0959095286255670e-03  4.7489239843874391e-03  3.0898108407878210e-03  1.4858982399974677e-03  6.9338303750290202e-03  1.6322136129251947e-02  1.7352797751126831e-02  1.6561987358558402e-02  1.4045472594442075e-02  3.6461820125773077e-03  1.6758588971749633e-02  1.0644544386122267e-02  1.2058683639021951e-02  1.8630880270799545e-02  1.4101769841779407e-02  1.4774739007558180e-02  1.2651977684744402e-02  1.4539027297430444e-02  1.4282671390336730e-02  1.6183070745159098e-02  1.6295780511454146e-02  1.5797349754701352e-02  1.3873060024096518e-02  1.5346631953061815e-02  1.7921320229879474e-02  1.3377999172867366e-02  2.1499584392654328e-02  1.7952129035458248e-02  1.9564249007190691e-02  6.5130025073280057e-04  1.8621577117116034e-03  1.8289447738475066e-02  9.8967420306085747e-03  1.1869243244349060e-02  1.4299090086681472e-03  6.5476070586776240e-03  6.4238181884235918e-04  6.9311618733733230e-04  7.5688343460380498e-03  7.3643599737271389e-03  3.6081589145229055e-03  3.2665980241036795e-03  4.9473879687480108e-03  1.5520381292376019e-02  1.8644818746391106e-02  1.8407504183391540e-02  1.7929269562297484e-02  1.8061272148957697e-02  1.6519321855306621e-02  2.3807723703190412e-03  3.8735597227358555e-03  2.5466804903593772e-03  1.1777024213885871e-02  3.9975335626787432e-03  7.1774898161877107e-03  6.6434097234274484e-03  2.0879902006952118e-03  1.8160258699286922e-02  6.6101628160275035e-03  1.5479358372297814e-02  1.9211919863242291e-02  3.1652240776045947e-04  6.9949753538646204e-04  7.4961990950486929e-04  6.4654098956651307e-03  1.9303451701528383e-02  1.1126841247765566e-03  1.4720546471530347e-02  5.2460049530520317e-03  4.5399899334937089e-03  1.2906079440537458e-02  4.8781293265483217e-04  1.0881560212552892e-02  5.5276233908793980e-03  1.0107105765981149e-03  2.8909781260322753e-04  1.4738711092941342e-03  9.4242912121699125e-04  5.2951402770898878e-04  1.7031987637326169e-02  1.4558521594274997e-02  7.4283024408232238e-03  2.1667335642916782e-02  1.2444741630361744e-02  1.8145906022904823e-04  9.2742144498913516e-04  3.9850593446472812e-03  1.7439312329287429e-02  7.8374642178742002e-03  1.6105529077101680e-02  1.3253696012402842e-04  2.4673997770551831e-03  1.8838982584590473e-03  2.1008309629779428e-03  4.4023722106623321e-03  6.1170038912320658e-03  3.7740149733993017e-04  1.2118630683086841e-02  5.8705814965436288e-03  2.0345652405169848e-02  1.9169416901291505e-02  1.2299249170151419e-02  4.3360413167825677e-03  8.9905000031146286e-03  2.7740656635351201e-03  2.1144894411529225e-02  1.0332768508457936e-02  7.1269228047147410e-03  1.7676917215363672e-02  2.8162613915836540e-03  3.7544191145476745e-03  6.3853683484030145e-03  6.4131705337133523e-03  1.2078303929269245e-02  9.7712281543363994e-03  1.5976289879178648e-02  7.6831338860390789e-03  1.2762831852766259e-02  6.3551803176409155e-03  6.8029032182735415e-03  1.8248478505901541e-02  1.7223452895894824e-02  1.1238915820954924e-02  2.1979607537152571e-02  2.1661717884885499e-02  2.0958656602480950e-02  1.5132791022194497e-03  1.1396551789861807e-03  2.5950711795521314e-03  1.1187542291458460e-02  7.4283427754964488e-04  4.5574916238762638e-04  4.7496643654603050e-03  7.6522946189709899e-04  1.1157963694247020e-04  1.1060100567442655e-02  1.4807291095793993e-04  2.1763692942438958e-02  3.8683362483589653e-03  9.4409745730756386e-03  2.1661484549362800e-02  