<?xml version="1.0"?>
<VTKFile type="UnstructuredGrid"  version="0.1"  >
<UnstructuredGrid>
<Piece  NumberOfPoints="1242" NumberOfCells="2386">
<Points>
<DataArray  type="Float64"  NumberOfComponents="3"  format="ascii">0 0 0  0 1 0  1 1 0  1 0 0  1.1 -0.1 0  -0.1 -0.1 0  1.1 1.1 0  -0.1 1.1 0  0.500995173421221 0.5067367256050699 0  0.5969445812630854 0.7314468598327825 0  0 0.9499999999997918 0  0 0.8999999999995836 0  0 0.8499999999996529 0  0 0.7999999999999998 0  0 0.7500000000003466 0  0 0.7000000000006934 0  0 0.6500000000010401 0  0 0.6000000000013869 0  0 0.5500000000017335 0  0 0.5000000000020587 0  0 0.4500000000018723 0  0 0.4000000000016644 0  0 0.3500000000014564 0  0 0.3000000000012483 0  0 0.2500000000010403 0  0 0.2000000000008322 0  0 0.1500000000006241 0  0 0.100000000000416 0  0 0.05000000000020799 0  0.04999999999989965 0 0  0.09999999999981467 0 0  0.1499999999997036 0 0  0.1999999999995579 0 0  0.2499999999994121 0 0  0.2999999999992664 0 0  0.3499999999991206 0 0  0.3999999999989749 0 0  0.4499999999988292 0 0  0.4999999999986943 0 0  0.5499999999988151 0 0  0.5999999999989468 0 0  0.6499999999990784 0 0  0.69999999999921 0 0  0.7499999999993417 0 0  0.7999999999994734 0 0  0.8499999999996051 0 0  0.8999999999997368 0 0  0.9499999999998684 0 0  1 0.04999999999989965 0  1 0.09999999999981467 0  1 0.1499999999997036 0  1 0.1999999999995579 0  1 0.2499999999994121 0  1 0.2999999999992664 0  1 0.3499999999991206 0  1 0.3999999999989749 0  1 0.4499999999988292 0  1 0.4999999999986943 0  1 0.5499999999988151 0  1 0.5999999999989468 0  1 0.6499999999990784 0  1 0.69999999999921 0  1 0.7499999999993417 0  1 0.7999999999994734 0  1 0.8499999999996051 0  1 0.8999999999997368 0  1 0.9499999999998684 0  0.9499999999997918 1 0  0.8999999999995836 1 0  0.8499999999996529 1 0  0.7999999999999998 1 0  0.7500000000003466 1 0  0.7000000000006934 1 0  0.6500000000010401 1 0  0.6000000000013869 1 0  0.5500000000017335 1 0  0.5000000000020587 1 0  0.4500000000018723 1 0  0.4000000000016644 1 0  0.3500000000014564 1 0  0.3000000000012483 1 0  0.2500000000010403 1 0  0.2000000000008322 1 0  0.1500000000006241 1 0  0.100000000000416 1 0  0.05000000000020799 1 0  -0.1 1.05000000000004 0  -0.1 1.000000000000079 0  -0.1 0.9500000000001624 0  -0.1 0.9000000000003032 0  -0.1 0.850000000000444 0  -0.1 0.8000000000005848 0  -0.1 0.7500000000007256 0  -0.1 0.7000000000008665 0  -0.1 0.6500000000010508 0  -0.1 0.6000000000012352 0  -0.1 0.5500000000014196 0  -0.1 0.500000000001539 0  -0.1 0.4500000000014195 0  -0.1 0.4000000000013 0  -0.1 0.3500000000011588 0  -0.1 0.3000000000010178 0  -0.1 0.2500000000008986 0  -0.1 0.2000000000007579 0  -0.1 0.1500000000006174 0  -0.1 0.1000000000005272 0  -0.1 0.05000000000040083 0  -0.1 2.671196597248127e-13 0  -0.1 -0.0499999999998666 0  -0.0500000000000906 -0.1 0  -1.730560139634463e-13 -0.1 0  0.04999999999975802 -0.1 0  0.09999999999961506 -0.1 0  0.1499999999994613 -0.1 0  0.199999999999302 -0.1 0  0.2499999999991446 -0.1 0  0.2999999999990088 -0.1 0  0.3499999999988296 -0.1 0  0.3999999999986936 -0.1 0  0.4499999999985143 -0.1 0  0.4999999999984002 -0.1 0  0.5499999999985247 -0.1 0  0.5999999999986493 -0.1 0  0.6499999999987955 -0.1 0  0.6999999999989417 -0.1 0  0.7499999999990659 -0.1 0  0.7999999999992116 -0.1 0  0.8499999999993573 -0.1 0  0.8999999999994526 -0.1 0  0.949999999999584 -0.1 0  0.9999999999997226 -0.1 0  1.049999999999861 -0.1 0  1.1 -0.0500000000000906 0  1.1 -1.730560139634463e-13 0  1.1 0.04999999999975802 0  1.1 0.09999999999961506 0  1.1 0.1499999999994613 0  1.1 0.199999999999302 0  1.1 0.2499999999991446 0  1.1 0.2999999999990088 0  1.1 0.3499999999988296 0  1.1 0.3999999999986936 0  1.1 0.4499999999985143 0  1.1 0.4999999999984002 0  1.1 0.5499999999985247 0  1.1 0.5999999999986493 0  1.1 0.6499999999987955 0  1.1 0.6999999999989417 0  1.1 0.7499999999990659 0  1.1 0.7999999999992116 0  1.1 0.8499999999993573 0  1.1 0.8999999999994526 0  1.1 0.949999999999584 0  1.1 0.9999999999997226 0  1.1 1.049999999999861 0  1.05000000000004 1.1 0  1.000000000000079 1.1 0  0.9500000000001624 1.1 0  0.9000000000003032 1.1 0  0.850000000000444 1.1 0  0.8000000000005848 1.1 0  0.7500000000007256 1.1 0  0.7000000000008665 1.1 0  0.6500000000010508 1.1 0  0.6000000000012352 1.1 0  0.5500000000014196 1.1 0  0.500000000001539 1.1 0  0.4500000000014195 1.1 0  0.4000000000013 1.1 0  0.3500000000011588 1.1 0  0.3000000000010178 1.1 0  0.2500000000008986 1.1 0  0.2000000000007579 1.1 0  0.1500000000006174 1.1 0  0.1000000000005272 1.1 0  0.05000000000040083 1.1 0  2.671196597248127e-13 1.1 0  -0.0499999999998666 1.1 0  0.6209378628608582 0.7206797274667117 0  0.6437301833741369 0.7068824455877374 0  0.6651680239737173 0.690038420782791 0  0.6844621922925919 0.6705547543739618 0  0.7009815806581615 0.6488350264877059 0  0.7147654979578163 0.6256457706038733 0  0.7257491693179666 0.6013520405564331 0  0.733855286783484 0.5764234857552286 0  0.7394988559865288 0.5512594460586357 0  0.7426976326163977 0.5260362447487961 0  0.7431988265112718 0.5009913987377984 0  0.7418123335410388 0.4762275421949185 0  0.7381728292418356 0.4518128965699341 0  0.7324435959110325 0.4279405465399442 0  0.7250365031888022 0.4044814271700891 0  0.7151270322163604 0.3815647182934528 0  0.7028124850170155 0.3594532608226848 0  0.6881037238497514 0.3382044959161862 0  0.6709776986476523 0.3182010196908743 0  0.6514885570566489 0.3000173792050542 0  0.6298850531807764 0.2841626719800278 0  0.6064112452228515 0.2709874600774075 0  0.5815560038042771 0.2608013271859742 0  0.5557955474400463 0.25368450938334 0  0.5296186412552023 0.2498757055826079 0  0.503657571985671 0.2492070647710323 0  0.4785489209917811 0.2511334569225774 0  0.4549686337903768 0.2546054738052495 0  0.4323817390151248 0.2597446263471437 0  0.4106497742816095 0.2671642960678017 0  0.3900268397678379 0.2769047601576755 0  0.3708670390614952 0.2885402374435102 0  0.352901810778944 0.3015279855564052 0  0.3360993129023646 0.3161771761591079 0  0.3200791423719579 0.3323181306413135 0  0.305136854204332 0.3502597460375364 0  0.2914152966608397 0.3698347416122276 0  0.2791778518043538 0.3911721143073178 0  0.2684647792523469 0.414163513079952 0  0.2597192168349386 0.4387129800460635 0  0.2536945741277062 0.4646768288937616 0  0.2506547496156961 0.4917174225232546 0  0.2508744400646154 0.519036263956607 0  0.2546806744466658 0.5460073970747236 0  0.2616868113155012 0.57245310426728 0  0.271906819890359 0.5978021797708405 0  0.2846885691145798 0.6215927274519628 0  0.2996127220987433 0.6433938427071447 0  0.316094009994931 0.6632698904707529 0  0.3335463323895049 0.6810488411562478 0  0.3521429300016856 0.6966990892960877 0  0.3718243952400375 0.7103374335708781 0  0.3922452816880189 0.7219414327151027 0  0.4132462372745201 0.7314167762886119 0  0.434903293185511 0.7386788071673936 0  0.4570268377789888 0.7439517150272006 0  0.4793308326113366 0.7472201654794804 0  0.5019541445202065 0.7484972396973533 0  0.5250918302279678 0.7477622846967943 0  0.5487276875174705 0.744740922663613 0  0.5725660749773546 0.7393101831425749 0  0.2820937098555539 0.4393388974278884 0  0.3220657945433377 0.6308083514114224 0  0.6455254985082675 0.6825635740266135 0  0.7092651149129294 0.584870656503615 0  0.5629056173495547 0.7146392044093359 0  0.4935761084666082 0.7218428292008597 0  0.3119804504262292 0.3799174705310232 0  0.358823613722974 0.330615999459118 0  0.4124599425421419 0.2937477689532804 0  0.3756058985579667 0.6793709281149508 0  0.6079584035747689 0.2945986321648833 0  0.4964154448504425 0.270799809692371 0  0.6759688511930991 0.3589769861781695 0  0.7069315128445706 0.4216378065467504 0  0.4312092355994546 0.7085007319344124 0  0.7221726166626551 0.5153733779662292 0  0.2824981926578823 0.5743179496837539 0  0.2684820905211507 0.5069042442240795 0  0.4526222429391993 0.2781172931939328 0  0.7182699593335031 0.468869236542491 0  0.6898595368052989 0.6303402421977476 0  0.5442638766715892 0.2727667770222467 0  0.6025324731156404 0.7064772922531303 0  0.647124577071623 0.3223029966242904 0  0.3757882510960566 0.3165214137840204 0  0.3816848191266641 0.3452135540557008 0  0.3626881062165725 0.3596434306873074 0  0.3855699817191476 0.3753043367101005 0  0.4054344448965957 0.3590101919736455 0  0.4065289500202015 0.3877600440185197 0  0.3897320176934775 0.407564852258638 0  0.4319865142549318 0.3756935219703306 0  0.4221682156620823 0.4236022053635982 0  0.3925145551712609 0.4496475900246424 0  0.4610204320386988 0.4157373179060906 0  0.4729065087595988 0.3655293892102527 0  0.5034988510371862 0.411605949772082 0  0.5177888163769976 0.3638488983434017 0  0.5472015855283249 0.406256437527751 0  0.5636409024412175 0.3597579399428827 0  0.5945733083321535 0.3978812404950288 0  0.5776522745186193 0.4412805603514679 0  0.6284367906068155 0.4334195093597697 0  0.6077300060217944 0.4736895893147078 0  0.6475872420898422 0.4657310031736528 0  0.6390951103202975 0.5066344382845711 0  0.5938806637585013 0.5153570627030221 0  0.6269408446976554 0.5472596078143824 0  0.5811633376202132 0.558787190725363 0  0.6131144589001414 0.5903100144026945 0  0.5666769770553299 0.6033049076727696 0  0.5945856588443478 0.6300945383884872 0  0.5608334463224071 0.6484805436818413 0  0.5325947320385478 0.6227419793717777 0  0.6279723703543139 0.6224479046937174 0  0.5980266312444183 0.3670506055832321 0  0.3676273360275965 0.4259609501242199 0  0.3621857399818728 0.463434478109748 0  0.3932913381732513 0.4939460268367576 0  0.3598447347986768 0.511271214835886 0  0.3917184565769657 0.5382031341724934 0  0.3625565994868264 0.5556839727498092 0  0.3873320288237359 0.5859006388629348 0  0.3362772104690845 0.5355114307287199 0  0.4206068109205099 0.5641615488965889 0  0.4160563424736087 0.6129594800072141 0  0.4578497669881484 0.5854733527048608 0  0.4444026428082798 0.6323882660659403 0  0.3338511073501758 0.4447305729401948 0  0.5352190111209412 0.3392934632969195 0  0.6547892392361
[...]
<PointData  Scalars="v"> 
<DataArray  type="Float64"  Name="v"  format="ascii">7.0026825418496887e-21  1.0961322229181437e-19  2.3914207607796246e-19  2.6920330506549048e-20  -1.3951439073855975e-21  1.2190813062055402e-23  -7.3158481451350251e-22  -6.0736850219716928e-21  5.0194597384524333e-04  3.1007655848086068e-04  -1.9712665093857060e-21  1.5152633307257531e-19  3.4567090977783553e-19  9.5930606399145016e-19  -4.5433640737170633e-19  2.9549951124775346e-19  1.1856581896796732e-18  1.4137206925095206e-18  7.5941134173557885e-19  2.7894194333241388e-19  3.6237286679016806e-18  1.5980223800585387e-18  7.6012092273633054e-19  7.8180259330801447e-19  1.6053783474155853e-20  6.5695841639617642e-19  -1.4119579170303379e-19  7.2181341270843872e-20  -1.3813346670312634e-20  4.7519984042885244e-20  7.5932560257153392e-20  -2.0312591135129203e-19  5.6751112206777245e-19  4.9859272312489742e-19  1.2192234460795803e-20  2.3390481172880999e-18  9.4727387863356421e-19  4.1093811498675341e-19  5.1790796461273016e-19  3.6597153148524892e-19  5.2601571386960542e-19  -7.2692703907502140e-19  -3.9385628074361479e-20  -9.1987505901156343e-19  2.0285803027000848e-19  2.9047469576947234e-19  -1.6649066079282404e-19  -3.1818222042588303e-19  -3.3815182821703784e-19  4.2879389387350167e-19  1.6387366129359055e-18  -1.7500692811725902e-18  -6.0040090650346855e-19  6.3438488841291842e-19  -1.0154848036900800e-19  -1.0320706368610058e-17  -2.8175859418068602e-18  3.8090996327401056e-18  -4.5374578075515724e-18  4.0131307237269699e-19  2.0104396703643666e-21  1.2228887222537612e-19  -2.9144327994848874e-18  1.3316559609664542e-18  1.8254374544410919e-18  -1.2359870135296529e-18  -8.2685250341084833e-20  8.4685923076589919e-19  1.1733854332629010e-19  2.9237836582547467e-19  -5.9814723427188152e-19  -3.2472659644115219e-19  4.7995572232040343e-18  2.1255918030509784e-19  5.2409424661286412e-18  -5.1386998127409366e-18  -2.1936311856122278e-18  4.5812866112666722e-18  -1.4233948307212733e-18  -7.5183568315696035e-20  -3.9531437433637377e-18  5.9436258947826668e-19  2.9383413336498453e-19  2.1939867729812796e-18  2.7292704427705038e-19  2.4037689586859024e-19  2.4472637964407587e-21  1.1832818244605895e-20  5.1948727005062369e-22  2.6604192344887140e-21  9.2175824355806701e-20  6.4106492416322222e-20  -3.0361911366405868e-20  -2.9054851655093841e-20  1.6775202333003284e-19  2.3267532865567869e-19  8.1581771995085569e-20  1.1088328416144854e-19  3.9865792167084161e-19  2.9062923387943542e-19  1.0992230371756202e-19  1.6605894606649028e-19  4.9459300193025587e-20  3.6809091580352808e-20  -1.2878868467217514e-20  2.0637758039389899e-21  -1.3855395256961307e-21  2.4527048740674591e-22  3.8680096472843973e-22  -1.6370425628039929e-21  7.2843666528444859e-21  1.2386526050718967e-20  -8.1794570750147572e-21  1.1732888028148428e-20  1.7665905099384780e-20  -3.8303229763844514e-21  5.0539495674231877e-20  2.2835854544385120e-19  1.9151057295603128e-19  5.8252471823311610e-20  5.7853236658308543e-20  5.8484344438797172e-20  4.0837282835264228e-20  -3.5389427563545937e-20  -6.1646334086839197e-20  -6.6845778740179994e-20  1.7714523403308956e-21  5.3612119889530738e-20  -2.8582219986655874e-20  -3.3326961679517810e-20  -5.1530094773636663e-21  5.4675169341602132e-21  -3.3327354512828648e-21  7.6977935438275776e-21  3.7448207968194575e-20  3.2730739716588647e-20  1.7333079042422903e-20  -1.5410601426635467e-21  -4.1113927657253600e-20  -2.2707832717910186e-20  1.4429378199018272e-20  3.3382079934753216e-20  -1.3876424300527882e-20  -4.3316478667376217e-20  -2.1646464922306953e-20  -1.6262189548949569e-20  -2.0808544288126864e-21  7.0747128139373258e-21  1.0543958347323491e-22  -3.9054369875328776e-20  -1.0430977058182972e-20  -5.8396205895163900e-22  -8.9344320754841087e-21  1.2011681434165606e-21  2.1793458630619011e-21  -2.4845254585918709e-21  8.8402418035337902e-21  2.0962183645883821e-20  2.6613952131074250e-20  3.1186941976461832e-20  -1.9825245656445827e-21  4.6030492209517396e-20  7.8592675261474072e-20  8.1903313528257579e-20  6.3085702800915136e-20  -8.3559727914752656e-21  -6.5974232578659273e-20  -1.4911162184883288e-21  1.0934499080361837e-21  -2.1739644083059882e-20  2.5064155388736307e-21  -2.0816792628310905e-20  1.0799198844582944e-20  3.6822819851908545e-20  3.4933463184516316e-20  -1.0416741652714362e-20  2.1944904906700119e-21  6.7007705497115879e-21  3.1042394330392195e-04  3.1310411313999350e-04  3.1719723885286687e-04  3.2329197369598275e-04  3.3135584027564700e-04  3.4104050769522757e-04  3.5059654348733554e-04  3.5984154834061159e-04  3.6729537642437150e-04  3.7332254434234273e-04  3.7815411598331173e-04  3.7968763801095914e-04  3.7871020372198610e-04  3.7596702744047193e-04  3.7053525428188918e-04  3.6311804100893914e-04  3.5344973121555749e-04  3.4243010119842769e-04  3.2820542000750570e-04  3.1620676967663750e-04  3.0519303183300535e-04  2.9570364274864611e-04  2.8869293151552201e-04  2.8399700158322446e-04  2.8333431888671000e-04  2.8559025108346853e-04  2.8990380552616042e-04  2.9438749262725459e-04  2.9887024052929685e-04  3.0456001501616442e-04  3.1172145967622161e-04  3.2056349068932034e-04  3.2728818676687482e-04  3.3538210653122824e-04  3.3814454059396019e-04  3.4188350084408373e-04  3.4225209458468809e-04  3.4140782974095233e-04  3.3852534497489436e-04  3.3411942016209871e-04  3.3015179610253702e-04  3.2796330180615360e-04  3.2753653011479734e-04  3.3097058350677619e-04  3.3628931419039818e-04  3.4237148960909297e-04  3.4868736104591450e-04  3.5410246832234067e-04  3.5656179990393435e-04  3.5626584568907631e-04  3.5414110078977050e-04  3.5080542702245303e-04  3.4576497962753884e-04  3.4052175569497588e-04  3.3536395825129015e-04  3.3044342365191670e-04  3.2547272061166820e-04  3.2071796753217323e-04  3.1641866379419442e-04  3.1307583450237503e-04  3.1110972664968146e-04  3.7282824237956278e-04  3.9222366881355697e-04  3.4154985456026735e-04  3.9030781467022831e-04  3.5823959754864641e-04  3.6863715008118213e-04  3.7651898187064794e-04  3.6993279127235342e-04  3.4959768266352417e-04  3.9392437766556563e-04  3.3305875330186675e-04  3.2390482137102639e-04  3.8119898628059888e-04  4.0675483435798212e-04  3.8309403343067121e-04  4.0863826510279525e-04  3.7263407668041299e-04  3.5881204873582952e-04  3.3633820024968190e-04  4.1329426171694882e-04  3.6284266793865804e-04  3.1784295859033307e-04  3.5021137776668036e-04  3.5687725980141255e-04  3.6347774837092737e-04  3.9311067246283120e-04  3.9675218115212791e-04  4.2017424201821828e-04  4.1407394763210347e-04  4.3683082421445870e-04  4.4105354938569086e-04  4.3234535266428427e-04  4.6218364492920186e-04  4.6139998855154708e-04  4.6585063579497122e-04  4.2925416915478751e-04  4.6752799253334596e-04  4.2878129276254721e-04  4.6408141500576942e-04  4.1978458040707557e-04  4.4810057991953676e-04  4.8010836054903733e-04  4.6057679284467319e-04  4.8376851632375847e-04  4.6600145664355062e-04  4.7292280571690500e-04  4.8876753886260198e-04  4.6742862755096251e-04  4.7918540173480149e-04  4.4928358143856394e-04  4.5971272227639801e-04  4.2847660566167257e-04  4.2620948138504775e-04  4.5479289488289980e-04  4.1842318838380168e-04  4.2169445916228254e-04  4.4023721062336603e-04  4.4826850591871793e-04  4.7115581663196172e-04  4.5250900077615797e-04  4.7047364028896839e-04  4.5052112136070800e-04  4.5746775968233589e-04  4.3354615885716845e-04  4.7748479185737191e-04  4.5649559106180514e-04  4.7895024585811312e-04  4.5180714801028397e-04  4.2394140824794202e-04  4.0376533439200469e-04  4.5957640577158528e-04  4.2451478564142195e-04  4.3627499278450516e-04  4.3123626607974487e-04  4.0140956772228290e-04  4.4805316105735703e-04  4.3393647812989500e-04  3.9860704661908103e-04  4.0015767964266430e-04  3.9186569938738923e-04  4.0517302770419288e-04  4.0479057759084416e-04  4.0947862441375026e-04  4.1308272019319029e-04  4.0399142135699430e-04  3.9500111089420145e-04  4.1310210154790305e-04  4.4863487070465882e-04  4.7550103748163122e-04  4.2114398419788488e-04  3.9165746822690431e-04  3.8147779252879760e-04  3.6606031356821759e-04  4.4495767193154269e-04  4.4442730486339777e-04  4.3714682946347438e-04  4.2318861488032983e-04  4.0773917882965227e-04  4.1925521650214694e-04  4.8111959636117861e-04  3.8953534562138052e-04  4.1215852799867140e-04  4.3995575734802447e-04  4.0733753306112933e-04  3.7084612193252103e-04  4.0085731265003532e-04  4.3771415497797784e-04  4.2154803050017313e-04  4.1605723885615361e-04  4.1947252933328732e-04  4.0588573793689213e-04  3.9310606222731629e-04  3.9324833252055228e-04  3.7509835161192586e-04  4.5616880873567225e-04  4.4154606348384147e-04  4.2187877537161619e-04  3.9621829590738290e-04  4.3450879138124050e-04  3.8655892629752773e-04  3.9833037372612239e-04  3.8746848036218446e-04  3.8603958302778064e-04  4.9168418538589787e-04  4.9035876792428990e-04  3.6917483445132070e-04  3.6482303924896672e-04  3.9986427254631477e-04  4.9640656199264797e-04  4.0355929649701770e-04  4.2902079195435388e-04  4.1307708435884085e-04  3.7377848830716034e-04  3.7251067194252386e-04  3.5693338225335894e-04  4.1124384881756506e-04  3.9022949605367125e-04  3.9172031688264672e-04  4.3893690711748677e-04  3.7491872602791570e-04  3.7080475787776849e-04  3.4269975250951864e-04  3.7240106472481905e-04  3.3049871287557750e-04  3.8123611824009363e-04  3.5641596028999998e-04  3.9152023136896594e-04  3.8520036820429175e-04  3.7933834120596263e-04  4.2347303924935030e-04  3.9780653259879054e-04  4.1255354937264971e-04  4.3454108787443943e-04  3.9780607676638536e-04  3.8082094290871717e-04  3.8790621151914246e-04  4.8978502788342058e-04  3.7795832007946940e-04  4.8120167374263531e-04  3.4031261987482519e-04  3.1977281815304858e-04  3.4730917511762230e-04  4.0798050407815536e-04  3.3954141672490156e-04  3.6926541186863178e-04  3.8218557763242236e-04  3.0780764483359467e-04  4.1350207932083972e-04  3.5645339200435916e-04  4.1453139735331962e-04  4.9724775829830764e-04  4.8588435312200723e-04  3.9470186760655877e-04  3.9891170424667145e-04  3.5096674037184806e-04  3.1375660039437993e-04  3.5326656790220430e-04  4.2030690292291830e-04  3.7431884717086525e-04  3.8923737241263877e-04  3.4558406598950164e-04  3.7363775185479740e-04  3.8193000843689246e-04  4.2567743519602148e-04  3.7850480397464770e-04  3.7657401098170780e-04  3.3670848308086997e-04  3.4515751357308685e-04  3.6714803250230193e-04  3.5941074538204656e-04  3.6528855749445860e-04  4.4950214186855733e-04  3.7902565711358513e-04  3.8891793552875230e-04  3.4522547641154010e-04  3.7101457140597643e-04  3.9805106784771466e-04  4.9361919407681608e-04  3.6119908487599223e-04  4.0910394617429816e-04  3.9359488601114812e-04  4.4041471389935757e-04  4.3019616095394552e-04  4.3220383609820622e-04  4.0722959651290466e-04  3.9811243258655756e-04  4.0486696514679103e-04  4.4194919405240421e-04  3.6116077188448918e-04  4.2968708522372271e-04  4.1535905490582925e-04  3.4882081733570455e-04  3.7310461406117964e-04  3.9414198931336027e-04  4.6329768423952690e-04  4.1846216209198624e-04  4.0183752803609293e-04  3.7798497795726459e-04  4.4973023946198894e-04  4.4302295058176500e-04  4.1357184486275788e-04  4.9503895823342127e-04  4.2350703654426647e-04  4.5678521380811642e-04  4.4445413255356713e-04  3.9089601332547230e-04  4.2942906369660517e-04  4.1793734776023343e-04  4.8209327137532592e-04  4.0028816921056001e-04  3.5156196527871337e-04  3.6972531665109554e-04  4.5602668317744495e-04  3.9692721495045358e-04  3.7142565216895571e-04  4.3002485868897527e-04  3.9961915146584652e-04  3.9346973024684013e-04  3.7648962970420564e-04  4.2451228324101402e-04  3.9153688750694153e-04  4.2648227015715034e-04  4.1270382426839822e-04  3.6036684145962505e-04  4.3085678245190396e-04  3.3986992323289673e-04  3.1117959710173321e-04  2.9295331033520050e-04  3.3036198106010679e-04  3.0131443432367025e-04  3.0433605737275005e-04  3.2102643354500532e-04  3.1578127428087986e-04  2.9310106465592377e-04  3.3219960164536816e-04  3.1504084000413227e-04  3.0738835566736673e-04  3.2077198513173126e-04  3.0991378589856485e-04  2.8345233360829855e-04  2.9235565843200694e-04  2.8740002972013361e-05  2.7335082635652477e-04  3.2513966037544364e-05  4.3717337767456828e-05  3.4565872363324099e-04  4.6842055367729149e-05  3.3452075003031416e-04  4.3782094952162020e-05  3.7389722238781704e-05  4.3065323665633373e-05  2.6734588751014989e-04  2.6553544828286890e-04  4.2973899260015665e-05  3.0966315456353900e-04  3.4455332360319068e-04  3.4999917804634906e-05  3.0503939834503470e-04  4.2286180418143155e-05  5.0187292163358738e-05  2.9587080580339374e-04  6.3570877604177822e-05  6.1980266397937251e-05  7.8227677367141335e-05  6.4697276976214907e-05  5.2731870832821686e-05  5.2460499088679485e-05  5.8733423707915957e-05  4.5436429074558886e-05  8.7116380478926005e-05  2.6749608305050805e-05  2.4277810543290165e-05  2.1722987015637891e-05  2.7048404210554611e-05  8.6255520914299888e-05  2.8541839371330162e-05  2.6231605577250025e-05  3.1248686588328451e-05  2.3113203673963573e-05  3.0247590676627721e-04  2.8941594889285991e-04  2.8122179758458541e-04  2.6220139505533696e-04  2.6965391936316032e-04  2.5131985650167819e-04  2.3591032547172640e-04  2.4426265193283603e-04  2.0455353946109936e-04  2.1257136199389698e-04  2.5077452848051130e-04  2.1633040662590960e-04  2.5670082730271354e-04  2.1704773263871846e-04  2.4778775812786020e-04  2.1139869425228452e-04  2.3744235988365400e-04  2.0087529623663810e-04  2.2264351648914005e-04  1.8475773622790535e-04  2.0305095148527981e-04  1.6295339913879466e-04  2.3899538776533770e-04  2.1757642961872694e-04  1.7792250606582334e-04  1.8877469682295774e-04  2.2894852254360759e-04  1.9710339874214801e-04  1.4716911893190000e-04  2.3536769506087314e-04  2.0292617562445769e-04  1.4582971291693069e-04  1.7720173828877418e-04  1.2444768448130765e-04  2.4549715838316418e-04  2.0746505833332390e-04  2.4368569354906277e-04  2.0904288523126584e-04  1.6965627707047945e-04  1.7180784304347816e-04  2.1094505443448040e-04  1.7393981740917517e-04  2.1804040016863805e-04  1.7641630591235644e-04  2.1318621280194000e-04  1.7654202871313261e-04  2.1731855455502336e-04  1.7622372490721396e-04  2.1336668697620914e-04  1.7303404492368871e-04  2.0302453394509433e-04  1.6618549954361492e-04  1.9426690530179443e-04  1.5634411086468402e-04  1.8114623536394676e-04  1.4449286280997153e-04  1.6387069652035554e-04  2.0106170876621742e-04  1.7877501549939958e-04  2.1547010784396433e-04  1.8861454946480155e-04  2.2506010237228168e-04  1.9233471715032229e-04  2.2899406418109286e-04  1.4454334363264186e-04  1.9089681070206312e-04  2.3464488468299811e-04  1.2653657106609880e-04  1.5442054730209671e-04  2.3430107031821324e-04  1.2890069501898791e-04  2.3612865813362746e-04  2.3672415022570008e-04  1.6341941476888876e-04  1.0480516071169673e-04  2.6906578875246533e-04  1.3524504674473692e-04  2.7054286438508773e-04  1.8774491947091200e-04  2.2203920598576441e-04  2.6446983262159117e-04  2.6129514325338456e-04  2.0850286737420453e-04  2.4251889814272379e-04  8.6975778661401768e-05  2.4580807108185858e-04  2.5692120549956101e-04  1.0461483573923025e-04  1.8920594806287860e-04  2.2296769571459042e-04  2.7202960873774578e-04  2.6045157236688412e-04  2.0267184494115746e-04  2.3324801089889301e-04  1.7792374083970634e-04  2.0776033506216470e-04  2.5743354281805580e-04  2.3152772484994852e-04  2.7545023754919017e-04  2.4947734377463090e-04  2.0507832392681054e-04  2.2134124989641406e-04  1.7648629989739487e-04  1.9143736249459009e-04  2.3126652421043948e-04  1.9944991695696300e-04  2.3465003865392496e-04  2.0117019052740155e-04  1.6733662166120962e-04  1.6607431473738448e-04  1.9540649006818069e-04  1.5833109822274789e-04  1.8330534063294035e-04  1.3040139857613760e-04  2.2086783557586157e-04  2.0555590092150776e-04  1.6604567447240899e-04  1.8548265351437052e-04  1.4490033739433138e-04  1.6372493238637345e-04  2.0274912882959286e-04  1.7750393587272965e-04  2.6588937714892830e-04  2.6523629496311352e-04  1.4715742617984502e-04  2.4121262344777442e-04  2.8785211380194335e-04  2.1580869269473309e-04  1.9655196790347102e-04  1.4947541594010884e-04  1.6245967532364910e-04  2.0699916031005524e-04  1.7408967556931164e-04  2.0978827501199769e-04  1.8259443431169179e-04  2.1724931250324161e-04  1.9135202408985391e-04  1.5236142579987694e-04  1.6152404655806558e-04  2.0960317549701830e-04  1.7194738018150210e-04  2.0737639739074417e-04  1.7718889208682506e-04  2.1022527840550099e-04  1.8225982449907789e-04  2.1262642416723955e-04  1.8370402699815480e-04  2.1343126509453680e-04  1.8110672684184970e-04  2.0819018291902240e-04  1.7355270616795844e-04  1.9832604148133399e-04  1.6113327776719910e-04  1.8101686368253786e-04  1.3839789474076868e-04  2.2031309575152257e-04  1.9922057014277507e-04  1.5151169574324915e-04  2.4760701041092972e-04  1.5752507826153107e-04  1.7175262276099295e-04  2.1507555309080971e-04  1.2430345738760333e-04  1.0421136996112103e-04  1.8449928355878355e-04  2.2859338156394488e-04  1.9497760003485951e-04  1.1289507455667498e-04  1.2705213017757369e-04  2.3825246737107771e-04  2.4402565249541692e-04  2.0288012093054751e-04  2.4627845942245234e-04  2.0952700316544213e-04  2.6930372462201146e-04  1.3404613913675051e-04  1.1603156273218179e-04  8.7483506410877726e-05  1.2184377438903649e-04  1.2128835753155090e-04  9.5460076943707140e-05  1.0100337834893296e-04  2.9210530845480084e-04  1.2655042094797742e-04  1.3724352727856600e-04  1.7768496910473735e-04  7.9718819962744294e-05  1.9232946758899807e-04  1.1704425388850955e-04  1.3690345590655476e-04  1.0441412647612861e-04  1.1458523077765076e-04  1.4998212719611830e-04  1.2623905877412651e-04  9.9340845241572379e-05  2.6924963136872054e-04  2.3666023990759707e-04  2.8740200611546330e-04  1.2715786698823964e-04  3.0912020934219903e-04  2.3746946221956655e-04  2.4527776524639708e-04  8.2652917999178607e-05  2.9426442430490959e-04  1.4421121577496898e-04  1.1893231661988627e-04  3.1651925220452877e-04  2.3484014097820171e-04  2.5407897101810097e-04  1.5969320511212428e-04  2.9951766646679837e-04  3.0926134531176737e-04  7.0229021087606428e-05  3.0121562295235026e-04  2.9403128197422732e-04  2.9680279114989834e-04  2.8526963602448405e-04  1.0024936505080990e-04  2.8460167481178159e-04  2.4482208070446829e-04  3.1763461203877341e-04  3.0892928309021354e-04  6.9647847311050782e-05  7.0197905554152422e-05  3.0690448641660506e-04  2.9100939077449415e-04  2.8455762955441430e-04  2.9788344381136297e-04  3.0570839145182632e-04  9.9782899669201741e-05  1.1864621708010389e-04  2.3800771349591994e-04  2.3090343506979044e-04  2.5176621985594991e-04  2.7489771634142652e-04  2.9480953148196726e-04  8.5300109115324388e-05  1.1671483322753602e-04  8.3461506468661910e-05  3.3379017977533496e-04  2.5965618329490333e-04  2.5603973996262021e-04  1.4948422409436106e-04  2.9328567085296054e-04  2.7491482304372445e-04  5.1663427789208771e-05  5.4562996680159435e-05  2.5251979123587532e-05  2.5848003109155983e-04  3.1397568999370050e-04  1.4697691089558571e-04  2.7867470972730294e-04  2.8218342515756847e-04  2.5347980216055676e-04  2.6814715266608490e-04  3.3485382019827575e-04  2.9370208868479005e-04  2.9046897488843978e-04  2.7870050231952771e-04  2.7552163985559226e-04  2.5905904747114167e-04  2.6289216420003169e-04  2.8686298995755265e-04  2.7113259440580414e-04  6.8342585874968511e-05  9.8193636072586027e-05  2.3586585752114812e-04  3.1079837271156451e-04  2.9438686632285178e-04  2.9166767530108888e-04  2.9615855543409036e-04  8.5489526954683157e-05  2.4929411312555282e-04  3.1543018553006040e-04  3.0440212196324804e-04  3.0866750660865010e-04  2.8702786684015394e-04  2.9187605886001473e-04  3.1080043104681182e-04  2.9095369929816212e-04  3.0861663936797079e-04  2.8753637935775915e-04  3.0546317734973344e-04  2.2309344067410913e-04  3.1705526923963938e-04  8.2280148997795254e-05  9.2635266909313929e-05  2.6412058947850763e-04  2.5246193035333874e-04  2.5953252