<?xml version="1.0"?>
<VTKFile type="UnstructuredGrid"  version="0.1"  >
<UnstructuredGrid>
<Piece  NumberOfPoints="1242" NumberOfCells="2386">
<Points>
<DataArray  type="Float64"  NumberOfComponents="3"  format="ascii">0 0 0  0 1 0  1 1 0  1 0 0  1.1 -0.1 0  -0.1 -0.1 0  1.1 1.1 0  -0.1 1.1 0  0.5010789813209588 0.5057638383656013 0  0.6092890026405339 0.7234690638658324 0  0 0.9499999999997918 0  0 0.8999999999995836 0  0 0.8499999999996529 0  0 0.7999999999999998 0  0 0.7500000000003466 0  0 0.7000000000006934 0  0 0.6500000000010401 0  0 0.6000000000013869 0  0 0.5500000000017335 0  0 0.5000000000020587 0  0 0.4500000000018723 0  0 0.4000000000016644 0  0 0.3500000000014564 0  0 0.3000000000012483 0  0 0.2500000000010403 0  0 0.2000000000008322 0  0 0.1500000000006241 0  0 0.100000000000416 0  0 0.05000000000020799 0  0.04999999999989965 0 0  0.09999999999981467 0 0  0.1499999999997036 0 0  0.1999999999995579 0 0  0.2499999999994121 0 0  0.2999999999992664 0 0  0.3499999999991206 0 0  0.3999999999989749 0 0  0.4499999999988292 0 0  0.4999999999986943 0 0  0.5499999999988151 0 0  0.5999999999989468 0 0  0.6499999999990784 0 0  0.69999999999921 0 0  0.7499999999993417 0 0  0.7999999999994734 0 0  0.8499999999996051 0 0  0.8999999999997368 0 0  0.9499999999998684 0 0  1 0.04999999999989965 0  1 0.09999999999981467 0  1 0.1499999999997036 0  1 0.1999999999995579 0  1 0.2499999999994121 0  1 0.2999999999992664 0  1 0.3499999999991206 0  1 0.3999999999989749 0  1 0.4499999999988292 0  1 0.4999999999986943 0  1 0.5499999999988151 0  1 0.5999999999989468 0  1 0.6499999999990784 0  1 0.69999999999921 0  1 0.7499999999993417 0  1 0.7999999999994734 0  1 0.8499999999996051 0  1 0.8999999999997368 0  1 0.9499999999998684 0  0.9499999999997918 1 0  0.8999999999995836 1 0  0.8499999999996529 1 0  0.7999999999999998 1 0  0.7500000000003466 1 0  0.7000000000006934 1 0  0.6500000000010401 1 0  0.6000000000013869 1 0  0.5500000000017335 1 0  0.5000000000020587 1 0  0.4500000000018723 1 0  0.4000000000016644 1 0  0.3500000000014564 1 0  0.3000000000012483 1 0  0.2500000000010403 1 0  0.2000000000008322 1 0  0.1500000000006241 1 0  0.100000000000416 1 0  0.05000000000020799 1 0  -0.1 1.05000000000004 0  -0.1 1.000000000000079 0  -0.1 0.9500000000001624 0  -0.1 0.9000000000003032 0  -0.1 0.850000000000444 0  -0.1 0.8000000000005848 0  -0.1 0.7500000000007256 0  -0.1 0.7000000000008665 0  -0.1 0.6500000000010508 0  -0.1 0.6000000000012352 0  -0.1 0.5500000000014196 0  -0.1 0.500000000001539 0  -0.1 0.4500000000014195 0  -0.1 0.4000000000013 0  -0.1 0.3500000000011588 0  -0.1 0.3000000000010178 0  -0.1 0.2500000000008986 0  -0.1 0.2000000000007579 0  -0.1 0.1500000000006174 0  -0.1 0.1000000000005272 0  -0.1 0.05000000000040083 0  -0.1 2.671196597248127e-13 0  -0.1 -0.0499999999998666 0  -0.0500000000000906 -0.1 0  -1.730560139634463e-13 -0.1 0  0.04999999999975802 -0.1 0  0.09999999999961506 -0.1 0  0.1499999999994613 -0.1 0  0.199999999999302 -0.1 0  0.2499999999991446 -0.1 0  0.2999999999990088 -0.1 0  0.3499999999988296 -0.1 0  0.3999999999986936 -0.1 0  0.4499999999985143 -0.1 0  0.4999999999984002 -0.1 0  0.5499999999985247 -0.1 0  0.5999999999986493 -0.1 0  0.6499999999987955 -0.1 0  0.6999999999989417 -0.1 0  0.7499999999990659 -0.1 0  0.7999999999992116 -0.1 0  0.8499999999993573 -0.1 0  0.8999999999994526 -0.1 0  0.949999999999584 -0.1 0  0.9999999999997226 -0.1 0  1.049999999999861 -0.1 0  1.1 -0.0500000000000906 0  1.1 -1.730560139634463e-13 0  1.1 0.04999999999975802 0  1.1 0.09999999999961506 0  1.1 0.1499999999994613 0  1.1 0.199999999999302 0  1.1 0.2499999999991446 0  1.1 0.2999999999990088 0  1.1 0.3499999999988296 0  1.1 0.3999999999986936 0  1.1 0.4499999999985143 0  1.1 0.4999999999984002 0  1.1 0.5499999999985247 0  1.1 0.5999999999986493 0  1.1 0.6499999999987955 0  1.1 0.6999999999989417 0  1.1 0.7499999999990659 0  1.1 0.7999999999992116 0  1.1 0.8499999999993573 0  1.1 0.8999999999994526 0  1.1 0.949999999999584 0  1.1 0.9999999999997226 0  1.1 1.049999999999861 0  1.05000000000004 1.1 0  1.000000000000079 1.1 0  0.9500000000001624 1.1 0  0.9000000000003032 1.1 0  0.850000000000444 1.1 0  0.8000000000005848 1.1 0  0.7500000000007256 1.1 0  0.7000000000008665 1.1 0  0.6500000000010508 1.1 0  0.6000000000012352 1.1 0  0.5500000000014196 1.1 0  0.500000000001539 1.1 0  0.4500000000014195 1.1 0  0.4000000000013 1.1 0  0.3500000000011588 1.1 0  0.3000000000010178 1.1 0  0.2500000000008986 1.1 0  0.2000000000007579 1.1 0  0.1500000000006174 1.1 0  0.1000000000005272 1.1 0  0.05000000000040083 1.1 0  2.671196597248127e-13 1.1 0  -0.0499999999998666 1.1 0  0.6337854391888407 0.7155764765648254 0  0.6571208316751468 0.7044815854567706 0  0.6790409653058289 0.690566201887964 0  0.6979759566129512 0.6727072562190878 0  0.7135937476639451 0.6518944236260004 0  0.7247520564697943 0.6285004979446249 0  0.732758868254702 0.6039323618029476 0  0.7392294877329368 0.5790234559103746 0  0.7433117571560031 0.5536863773351767 0  0.7449549017666786 0.5281434235509384 0  0.7449941074405836 0.5025967860444255 0  0.742913836750028 0.4771604061879818 0  0.7383103157327762 0.4520994697527791 0  0.7318651350704538 0.4274963581969632 0  0.7245373426751625 0.4031643978342231 0  0.7158957060470202 0.379213706469364 0  0.7052745020426459 0.3559960285559339 0  0.6923162688336 0.3338746510045177 0  0.6770002602468073 0.3131999157698804 0  0.6589083134410655 0.2948223871517685 0  0.6385031093241343 0.2790124562145641 0  0.6161494181641427 0.2660641325755353 0  0.592072404736974 0.2567556569105997 0  0.566772656542225 0.2518664094272956 0  0.5411320417727442 0.2506891000133643 0  0.5156906103758971 0.2529670514662141 0  0.4908314310229618 0.2580974851867667 0  0.4665280284193991 0.2645128502631094 0  0.4428678510550192 0.2725445770572897 0  0.4200158440967974 0.2825781476284987 0  0.3979843556044572 0.294234617791178 0  0.3770058095029125 0.3075716517100504 0  0.3566388279734199 0.3217495863534882 0  0.3366504708343468 0.3364907754733057 0  0.3172832311774129 0.3521785353365008 0  0.2992931867632715 0.3696148918041109 0  0.2824343201172751 0.3882797216046801 0  0.2667001826993222 0.4080453221470726 0  0.2521850931835736 0.4289029616422059 0  0.2391147452866901 0.45084144299586 0  0.2279156608709899 0.4739569070010193 0  0.2198227823192287 0.4984594835732454 0  0.2185839797945394 0.5244988579984203 0  0.2226124522889735 0.5502518483557621 0  0.2327986258897924 0.5741692925686381 0  0.246529647788148 0.5961600567587269 0  0.2630653126357739 0.6159500534483899 0  0.2811765156234792 0.634136409544598 0  0.3007066817045027 0.6505773500297768 0  0.321093783501806 0.6656556750410569 0  0.341944223535719 0.6799787569988559 0  0.363954746075854 0.6923447784359827 0  0.3868522813316604 0.7028607748215552 0  0.4103892909826185 0.7116664840501997 0  0.4344265759076162 0.7189140640673745 0  0.4590619562227128 0.7235752839523484 0  0.4838275763374734 0.7270517305747247 0  0.5087039416116057 0.7297326125287837 0  0.5337599287227918 0.7312780131136689 0  0.5589726143515477 0.7310002814063317 0  0.5841787259555653 0.7283304963095664 0  0.2641533373633475 0.4513904562295132 0  0.3056568506657498 0.6217708786999573 0  0.6580054509188039 0.6809401977181772 0  0.7155304993951713 0.5867648901926871 0  0.5725822224543435 0.7040931237608404 0  0.4982314234283323 0.7051916130324962 0  0.3039107114390299 0.3962894205258866 0  0.3596744598083724 0.347975881184735 0  0.4197659194686457 0.3078862085755839 0  0.3672162012682171 0.6644760111868111 0  0.6163947705167852 0.2907534887006611 0  0.5071651157365593 0.2757766388626725 0  0.6795395645931075 0.3556665335170179 0  0.7075423488541343 0.4207308306750316 0  0.4292961390740723 0.6913779867815212 0  0.7247813029453675 0.5166639884040753 0  0.2572134582608333 0.5738700001616223 0  0.2404018175618083 0.5128494654537145 0  0.462296360106223 0.2880353553341398 0  0.7196299471446471 0.4692881312807924 0  0.7001250218688246 0.6323194000979936 0  0.5545904640347079 0.2727624118262791 0  0.6139891031992367 0.6999782102288566 0  0.6534209784526772 0.3181213883669956 0  0.3793094013725585 0.3333354058566003 0  0.3827594534900528 0.3596095238187004 0  0.3609858434663722 0.3744807521131179 0  0.3842582804097306 0.3873718249587889 0  0.4068431765373758 0.3705958051010294 0  0.4057279896699629 0.3975496544190409 0  0.3861870106162987 0.4170925682241859 0  0.4336388458654308 0.3843456838785435 0  0.4200384316011304 0.4301908629048235 0  0.3864424764677507 0.4559354230527936 0  0.4617195395484752 0.4205964677590145 0  0.4769958735229032 0.3715725992481806 0  0.5061421448331109 0.4144401918275427 0  0.523051250344182 0.3668086497904774 0  0.5509674638136074 0.4072653700223335 0  0.5693807014733111 0.3600314153340944 0  0.5986735045496294 0.3972569836791505 0  0.5807802779663633 0.4410995265134062 0  0.631436957326984 0.4325865187936485 0  0.6107489592654308 0.4730583717027929 0  0.6502999224913714 0.4652245945702418 0  0.6425165562657692 0.5061726088365232 0  0.5971582969003194 0.5141470324696713 0  0.6314518374513092 0.5462834550311236 0  0.5850910538997244 0.5562766387345002 0  0.6191269909075107 0.5881489082522906 0  0.5715087625957957 0.5986703513942855 0  0.6018660090357739 0.6258457692067236 0  0.5672180828931408 0.6413981903137783 0  0.5362465609343097 0.6156988791269813 0  0.6360932576792842 0.6204659077622675 0  0.603193821588043 0.3658885818132385 0  0.3607738088418038 0.4353980119182035 0  0.3521207858433431 0.4700273920642526 0  0.3851568402036513 0.4965928038928299 0  0.3470671282908758 0.5135719898570977 0  0.3823400399912683 0.5369355077870596 0  0.3494639896961713 0.5535045328649377 0  0.3775845190039431 0.5801857406371174 0  0.3195747123573889 0.5362442091991078 0  0.41427035385671 0.5600358699603617 0  0.4098840893007515 0.6045223505523422 0  0.455167853692366 0.5794895080335491 0  0.4413876085511417 0.6223992856488327 0  0.321831877270415 0.454320946222617 0  0.5419508732272036 0.3411788165067801 0  0.658909885750
[...]
<PointData  Scalars="v"> 
<DataArray  type="Float64"  Name="v"  format="ascii">5.5761674004717465e-21  1.1025506798942748e-19  2.3939679675071286e-19  2.5017016648834579e-20  -1.3165719372245796e-21  8.7287852533252867e-23  -7.4962121179324971e-22  -6.1045376640427322e-21  4.8037113375553952e-04  3.8454358090237253e-04  -5.4936149959294202e-21  1.4928517231742178e-19  3.3602740634442405e-19  9.6000199160877916e-19  -4.5248321957070583e-19  2.9490148370861557e-19  1.1596405042896581e-18  1.4473059238008271e-18  8.0512695776279908e-19  2.7457240768426021e-19  3.6309562444502884e-18  1.5831977329639189e-18  7.4690951040080790e-19  7.8836755815299375e-19  0.0000000000000000e+00  6.4270762048963827e-19  -1.3596964236626548e-19  7.6370194185637998e-20  -1.0484830887697137e-20  4.6817023667329076e-20  6.9540221487684674e-20  -2.0392968258069096e-19  5.7594218812508865e-19  4.8335304875487965e-19  -5.6280483683416783e-21  2.3325029846246239e-18  9.5833056308100216e-19  3.7190310086390966e-19  5.0011851800288328e-19  3.7275001333162816e-19  4.7926760940644246e-19  -7.1069320362529985e-19  -5.8757157203634609e-20  -9.1877235753097385e-19  2.0607890422014719e-19  2.8114867359525347e-19  -1.6627774023752027e-19  -3.1746367528995150e-19  -3.3899261924989972e-19  4.3684847417894733e-19  1.6399221245175517e-18  -1.7432199479572028e-18  -6.0999410589366264e-19  6.2495297228133810e-19  -1.1456780183860972e-19  -1.0310856728549638e-17  -2.8192255393695397e-18  3.7820871634884438e-18  -4.5428760495630630e-18  4.4562133065454323e-19  -1.2199109872849466e-20  1.1965043832599202e-19  -2.9138939900691724e-18  1.3333586951940233e-18  1.8209456587411551e-18  -1.2301680016819002e-18  -8.1266750740988579e-20  8.4381012755397806e-19  1.1222358513382238e-19  2.9569861681650531e-19  -6.0233563969998280e-19  -3.2616623057716778e-19  4.8046958674599456e-18  2.1040219198687040e-19  5.2572880175003209e-18  -5.1364444587293525e-18  -2.1871127737226926e-18  4.5880698093393638e-18  -1.4217647435538600e-18  -7.3157900505091040e-20  -3.9719900996723030e-18  5.9153379039710982e-19  2.8535615408643237e-19  2.1877998645340309e-18  2.6699518161711395e-19  2.4458160082815656e-19  2.5218227778981433e-21  1.1793942666010722e-20  2.3329748601533190e-22  2.0632017703742011e-21  9.1088117498394893e-20  6.3192547010558512e-20  -2.9533369424410443e-20  -3.0186319618797032e-20  1.6607254840790190e-19  2.3524924964389054e-19  8.6051972985444677e-20  1.1214730615208974e-19  3.9842097701028123e-19  2.8910644044565140e-19  1.0823271219866196e-19  1.6623336393671794e-19  4.7588860118202753e-20  3.5538198805072443e-20  -1.2535550827245706e-20  2.9082785799231609e-21  -1.0639017469528652e-21  1.7022795337793367e-22  3.1301792658460918e-22  -1.6722327346201287e-21  7.1700298998079962e-21  1.2091605954901563e-20  -8.9772485006286684e-21  1.1822434532210244e-20  1.8419318915904217e-20  -5.3670766537399397e-21  4.7633746829130571e-20  2.2812649463109827e-19  1.9163620858228717e-19  5.3671052978573334e-20  5.8969067272526787e-20  5.7797718819842019e-20  3.7761155888771041e-20  -3.5876134783077171e-20  -6.2496803492891721e-20  -6.7445938702154804e-20  1.6684609251953782e-21  5.2905177411177108e-20  -2.8898132372974324e-20  -3.3170865586787860e-20  -5.3586496085697051e-21  5.4132459027125541e-21  -3.3439651005631338e-21  7.3950785292382647e-21  3.7585721197216701e-20  3.3455103603134863e-20  1.8036335625277328e-20  -1.1239513744553209e-21  -4.1885629773169898e-20  -2.4627665819238406e-20  1.3249854489253711e-20  3.4290025488832295e-20  -1.4195739034605935e-20  -4.7006996940137474e-20  -2.1303200708437676e-20  -1.2439196250759541e-20  -2.4112510852631777e-21  5.8500655079629336e-21  3.7436305090289754e-22  -3.8449699976134990e-20  -1.0502203742502701e-20  -1.9553381090384566e-22  -8.5192731966535276e-21  1.1607641828872597e-21  2.1858124253862838e-21  -2.4630539907394888e-21  8.9174867046343597e-21  2.0453093575950668e-20  2.6096437398102672e-20  3.1536503495412856e-20  -3.1280116452132728e-21  4.5296978485696713e-20  7.9039482963709225e-20  8.2415367829201766e-20  6.4371653583513449e-20  -7.7282609723407317e-21  -6.5193911839624407e-20  -5.6185776026313674e-22  1.4857931967701035e-21  -2.2298278076860155e-20  7.7532323533341367e-22  -2.2013460501586518e-20  1.0153071199343543e-20  3.5799286858980742e-20  3.4369461144710387e-20  -1.0181515380075018e-20  2.3422784073164472e-21  6.6671915806760371e-21  3.4851730182037643e-04  3.1494374664733167e-04  2.8530957736488081e-04  2.6375460599277749e-04  2.5480453898533322e-04  2.4863893883363304e-04  2.4769627120825171e-04  2.4982763257939386e-04  2.5365257742311777e-04  2.6102992468211795e-04  2.6614877445484901e-04  2.6932379463517160e-04  2.7095929812952072e-04  2.7011849762922295e-04  2.6454049285611525e-04  2.5464675293162588e-04  2.4455514686988738e-04  2.3630139404495846e-04  2.3201017918504204e-04  2.3165650437591788e-04  2.3610521392429057e-04  2.4539537286179117e-04  2.6196035208681391e-04  2.8389651125580739e-04  3.1261759372794046e-04  3.4648690174712761e-04  3.8333183092677063e-04  4.1553036877865291e-04  4.4000740843078688e-04  4.5562137938488984e-04  4.6055182431466342e-04  4.5745777742890888e-04  4.4111377358792091e-04  4.1019099438526082e-04  3.6883503598562092e-04  3.1854152473985632e-04  2.6289309026277045e-04  2.0491433638373434e-04  1.5307690056594087e-04  1.0460469668524201e-04  6.6019658549271843e-05  4.2523862530127277e-05  3.2305228379646218e-05  3.5794767277807509e-05  5.4201428883317375e-05  8.3016198425894875e-05  1.2850736722696944e-04  1.8093685390569564e-04  2.3694617864085355e-04  2.9867273312921070e-04  3.5584131665462480e-04  4.0808646675835863e-04  4.5467608030022577e-04  4.8958817808024966e-04  5.1200586003375911e-04  5.2471291738774974e-04  5.2677888760212558e-04  5.1766017915422095e-04  4.9402744365323412e-04  4.6157555359656658e-04  4.2488994763120399e-04  1.1719343736249611e-04  2.2450209157816084e-04  3.1070905926099362e-04  2.8098312073115847e-04  4.6565325623884856e-04  5.3357360519309526e-04  2.9366247526989005e-04  4.2823649791546117e-04  4.6792938841449681e-04  4.0149288948761988e-04  2.5567158358772720e-04  3.9130489063640597e-04  2.7674967321873116e-04  2.9607850795697793e-04  5.1047083823144851e-04  2.9579858919768283e-04  3.5483879337459786e-05  -3.7994274705798405e-06  4.4226959098894020e-04  3.0069199361980147e-04  2.6238780227730177e-04  3.2223261976061012e-04  3.9919619749853656e-04  2.5109809930613358e-04  4.5322542285603830e-04  4.5180201340012179e-04  4.1597544969278709e-04  4.3790087527030488e-04  4.6986030528383804e-04  4.4966911906950228e-04  4.1168127624222349e-04  4.7098623670863425e-04  4.4083094457148881e-04  3.8086560629031643e-04  4.6790787158357706e-04  4.7139805481711443e-04  4.6356282325128191e-04  4.3995706055942666e-04  4.3462611490433775e-04  3.8745523060167538e-04  3.8376651688451599e-04  4.2482450047310802e-04  3.7392434424851943e-04  4.1214833262625736e-04  3.7172379289790236e-04  3.8814529223925049e-04  4.3530620720492216e-04  4.0202874396894040e-04  4.5280954465061512e-04  4.1427309017450696e-04  4.7462989655648076e-04  4.3584224076604559e-04  4.8600400525228505e-04  5.1008163818553145e-04  3.8313398261074989e-04  3.5540571330517208e-04  3.5575756412889518e-04  3.0404126509712205e-04  3.5726633051585819e-04  2.6993010521954053e-04  3.5019040443107316e-04  2.7553807164301127e-04  3.5961983992660829e-04  1.9094653249696582e-04  4.1993251158128583e-04  4.4265767746466076e-04  4.8491533811956830e-04  5.0053493832945067e-04  2.5251502520989453e-04  4.0567558140576889e-04  3.7053769544254697e-04  2.0444362300928317e-04  5.2834100167495563e-04  4.7460219274504596e-04  5.0711278321235163e-04  3.7783412597067401e-04  3.3749127540515272e-04  4.0013865601144609e-04  4.4327376563743767e-04  3.5955461996859143e-04  3.4330537951108003e-04  4.8059291529586867e-04  1.3476385140704478e-04  1.3300457553109142e-04  1.5796965541746430e-04  9.4441495914060548e-05  3.0001731451983154e-04  5.3084038867411750e-04  5.1169467702725873e-04  5.4579447574204249e-04  3.5343123206539237e-04  3.1457157757102072e-04  3.6096128947730961e-04  3.4362548826838115e-04  3.3804057215305248e-04  3.4616077605858033e-04  3.1945329027969474e-04  3.1720960907604632e-04  5.2273748025458350e-04  4.1920192014472329e-04  7.9252350145324267e-05  1.5101400418812482e-04  3.8946278978268107e-04  4.5270517365013271e-04  4.1492491283733610e-04  5.4019659301688446e-04  2.9114135873373605e-04  3.2505871929073562e-04  2.3705956504533612e-04  4.2369275935557986e-04  4.9239466131047855e-04  5.3723399403724620e-04  4.7528006936484808e-04  4.5643652898748598e-04  3.5401640246481768e-04  3.3586665808354668e-04  3.9554228976656727e-04  3.7156665867502304e-04  2.1920024258491010e-04  1.0906143202392726e-04  1.6824732145838289e-04  2.0148677925547559e-04  4.7119610981915638e-04  4.5925736221943931e-04  4.6186348088671962e-04  5.3418801330649252e-04  5.2090574899841613e-04  2.8995452279872628e-04  4.7497933489335507e-04  2.9198410506406017e-04  3.6528314338313403e-04  3.3422679808176725e-04  2.3129467026271688e-04  3.9079455314660992e-04  4.6610390463757448e-04  2.9961615653643019e-04  2.8156587326930198e-04  3.3997464820363795e-04  5.3303286303903229e-04  4.0616150874113759e-04  4.3958550172333469e-04  4.5943387855705781e-04  4.7562950010538547e-04  4.1857666545502966e-04  4.3996633053033712e-04  4.9516219924154953e-04  4.7516984383471456e-04  1.4146954866052760e-04  3.2189337986386797e-04  3.1576379962096449e-04  2.9036933748043678e-04  2.9948690486911937e-04  3.2408354400459584e-04  2.8822827304643834e-04  2.7450307971133996e-04  5.2235139786119158e-04  4.6885709037904234e-04  7.3679286181583894e-05  4.9298708959792474e-04  3.5350467141007319e-04  3.6177490878253320e-04  3.6218476958903501e-04  3.0705001070584258e-04  2.4401503771798660e-04  2.5684897538701086e-04  2.9178971670997656e-04  2.8011265402303766e-04  3.7374994102282356e-04  1.2123966072626417e-06  4.8291895935556308e-04  4.5644449286101808e-04  4.1415108267397853e-04  5.4495591109738001e-04  2.5777102327090697e-04  4.1874391914292644e-04  2.6096663488030768e-04  3.0984834844847368e-04  3.1432854418323271e-04  3.4670445095583710e-04  7.5014742920384374e-05  2.7952780916757394e-04  3.6922692158110896e-04  4.7559834950448176e-04  3.4537750946242880e-04  4.7839547589202658e-04  1.3078058698904806e-05  4.3039578453185791e-04  3.2863019305787573e-04  5.2406440145069569e-04  4.8365894582729571e-05  2.1618378232795912e-05  3.4364664387484051e-04  4.9465289547138177e-04  3.7400711297059532e-04  2.5418791893507952e-04  2.9282421718323810e-04  3.2096433354384627e-04  4.5620103176960240e-04  4.6242808607013667e-04  2.7394690459122214e-04  3.1417033251348420e-04  4.3512505817054024e-04  3.2121546209779706e-04  3.2214875420082453e-04  2.1505658911472189e-04  3.2022191775484037e-04  4.5510045877714930e-04  3.4280385117560155e-04  2.9862074912534285e-04  3.1882630868066699e-04  5.4174512379439840e-04  3.9103958235530578e-04  3.9086664330585663e-04  4.2569011345431642e-04  5.1462357598491598e-04  3.4220228462265064e-04  1.9163311907829990e-04  4.4083192346625917e-04  3.6262266652313117e-04  3.4238232656046917e-04  3.1283059679377786e-04  4.8851311788398078e-04  5.4087318950102185e-04  3.5828020446857623e-04  3.4808010496107999e-04  2.9268858644309785e-04  3.4247255171378877e-04  1.9977437474491877e-04  4.5334460711552853e-04  3.0731620476953143e-04  4.3960687035961754e-04  3.4114878250486038e-04  3.5561396009337553e-04  4.6399029000496824e-04  3.4025299221419018e-04  3.0810575834958954e-04  3.4246655363177176e-04  4.8172178846171302e-04  3.2630472970675333e-04  3.1548246987679927e-04  1.0388285106504273e-04  5.1581686748849661e-04  5.2916142121272659e-04  1.6130633140415030e-04  1.8466560217095560e-04  -2.2465866982779130e-05  3.4809901770018191e-04  4.0811335319133738e-04  2.5019804273198958e-04  2.6627555072239071e-04  2.2272711156459389e-04  3.8942949248907958e-04  2.2080513441096380e-04  3.1991126754078112e-04  2.3128743411195482e-04  2.4128245106899395e-04  4.6593848730816772e-04  1.1293604793581289e-04  5.6879094826127685e-05  2.3198665568296341e-04  4.1200834824653269e-04  4.1270514352169332e-05  3.8178162867635206e-04  3.6465466301613496e-05  3.8638077263413635e-05  2.4213951220841085e-04  2.3774044464043416e-05  2.3344720945758983e-04  2.8484176170537238e-05  3.9632356905638916e-05  3.2859784837675967e-05  2.6222433975133826e-04  3.1477027336777934e-04  3.1608686118853403e-05  1.0267073038938395e-04  2.3957904597081758e-04  6.2177383641991924e-05  4.9244490338602063e-05  6.7296033656053707e-05  7.3351220931527911e-05  4.5807183233542758e-04  4.1436758862288527e-05  4.0879206634703434e-05  2.0791139273598610e-05  4.1945989085450694e-05  7.3708050290880380e-05  4.9837924401536916e-05  2.3735368362167594e-05  8.2527664199086632e-05  1.0119913714462147e-05  2.4958140215964725e-05  1.7200584268475785e-05  2.4038292751055534e-05  1.9070712456637284e-05  1.4280016957937381e-05  2.4270644253015472e-05  2.2362271641142428e-05  2.0903849916445270e-05  2.8983953502537435e-05  4.5268383622850271e-05  4.7315722057734598e-05  3.9481939800859872e-05  3.8875815845616368e-05  4.9694421058930339e-05  3.3654735072142132e-05  3.8780142111374356e-05  5.4373766571651841e-05  3.8847825588036224e-05  5.6623524932085955e-05  7.8257420550577320e-05  7.9064027684109969e-05  1.1046729541920880e-04  1.0409477535196268e-04  1.3880166388348391e-04  1.2727073216892566e-04  1.6522300643950557e-04  1.4581706830745194e-04  1.8519592974134419e-04  1.5677565793205704e-04  1.9556932106130082e-04  1.2266278386582170e-04  2.2744162313791645e-04  2.3698715905315926e-04  1.9283641587103511e-04  2.2862823171030742e-04  2.8063868723737529e-04  2.6312262165437166e-04  1.7661340021335380e-04  3.1864758701692137e-04  2.9297529562577614e-04  1.2550005215209055e-04  9.3944004011714348e-05  9.6153216869903043e-05  3.5903613137458869e-04  3.1655785372337311e-04  3.7603606547013393e-04  3.2966562710559817e-04  2.6852944075041803e-04  2.7610368526643516e-04  3.3385931079826092e-04  2.7648551601250419e-04  3.3643818096964004e-04  2.7039436469681618e-04  3.1384479910238759e-04  2.5525037250334246e-04  2.9793871300875900e-04  2.3685306207289322e-04  2.6826091942989695e-04  2.1439382339934101e-04  2.3589983791116835e-04  1.9028672664481638e-04  2.0725821727359887e-04  1.6573502771369763e-04  1.7895215263088825e-04  1.4293015312118139e-04  1.5171826036538389e-04  1.8417608956227470e-04  1.5489314606995973e-04  1.8341985893629675e-04  1.5311411566312113e-04  1.7849342552920429e-04  1.4697489069104524e-04  1.7091203226527208e-04  1.2730760858223019e-04  1.3858142822638313e-04  1.6691270337349423e-04  1.4257256170199976e-04  1.1472514536855634e-04  2.5100474938117803e-04  2.1088986114338660e-04  2.1225785207650873e-04  3.0549569989840266e-04  2.3370389689781373e-04  9.1524278542533643e-05  1.7598828231397609e-04  2.0478103100513733e-04  3.7191823548986578e-04  1.3087237992787332e-04  1.5283285006836771e-04  1.8491644308563690e-04  1.7878272839172914e-04  1.4075656237174262e-04  1.6373174379070811e-04  6.8087582934703221e-05  3.6550530630643488e-04  1.9905721065677557e-04  7.1822986594913545e-05  1.2634186444235491e-04  1.4935737936401077e-04  1.8435863470788144e-04  1.7581763825103697e-04  1.3513178430808414e-04  1.5641068267903158e-04  1.1814873252302899e-04  1.3852694349636598e-04  1.7363522389995676e-04  1.5495200525701084e-04  1.8672672942946636e-04  1.6762642216191253e-04  1.3625574078075805e-04  1.4774380667745870e-04  1.1661156625821246e-04  1.2734139326570868e-04  1.5568700555412487e-04  1.3435995991276187e-04  1.6041032252014770e-04  1.3822612432973276e-04  1.1317975369455881e-04  1.1492565731204400e-04  1.3834031385966046e-04  1.1296399444620872e-04  1.3482275519103529e-04  9.1006242292248767e-05  1.6116468804006445e-04  1.5784823883246646e-04  1.2820284493816840e-04  1.5153199257437105e-04  1.1823270632473939e-04  1.4291614483006131e-04  1.7768130629426527e-04  1.6789200982053728e-04  1.8160655034243968e-04  1.8427415921167477e-04  9.6968309612408571e-05  1.8300317528202291e-04  1.9600137426527939e-04  2.0290981323882205e-04  2.0174811944075651e-04  1.5270124024483489e-04  1.8147178306166651e-04  2.3623380776494006e-04  2.1187191295367119e-04  2.6069098452687571e-04  2.3884330784486424e-04  2.8582372210310880e-04  2.6337058137087497e-04  2.0905390709896406e-04  2.3063961412773566e-04  2.9904602405870785e-04  2.4921530337936775e-04  2.9804431180652680e-04  2.5523194444867207e-04  2.9672542631364060e-04  2.5468298254353178e-04  2.8766572259801771e-04  2.4462475352844172e-04  2.7009113032698063e-04  2.2632812747425617e-04  2.4249419119119496e-04  2.0052737116584867e-04  2.0840969632359669e-04  1.6954522165512693e-04  1.7040428738256713e-04  1.5893577714473604e-04  2.0382878806412015e-04  1.6106505568194848e-04  2.1092345410690300e-04  3.2091784900125736e-04  1.3183003145325481e-04  1.2067128017787798e-04  1.4292784381767336e-04  1.3139244416857091e-04  1.1902866759829982e-04  1.0370134011692464e-04  1.1859062740103304e-04  8.3405484190079719e-05  1.3878328518655979e-04  9.4272165494920307e-05  3.3796255991209502e-04  9.3196270078404865e-05  6.2479370284177787e-05  6.7406595268905536e-05  4.7268469116664624e-05  1.2812472115301943e-04  1.9685785818351006e-04  1.2760502498091771e-04  9.2766504116290161e-05  1.7468611392365300e-04  8.7166035252315592e-05  6.7401114395291214e-05  6.9546435587976998e-05  2.0258118824926076e-04  8.2911323673635318e-05  1.8062145528109183e-04  5.2629717493275629e-05  9.6904874873474751e-05  2.6837403653707655e-05  1.0126854713567541e-04  1.4693895052384810e-04  1.2395616388882942e-04  1.5146918717725045e-04  9.9959774614262622e-05  9.7146712744009613e-05  8.0905503508154846e-05  3.8123398794362029e-05  2.0754225972904858e-04  2.0269748741647423e-04  2.0286825986283233e-04  2.1246587680685865e-04  2.9970508619896061e-04  3.2478141109398910e-04  1.4070777018986301e-04  2.0200862721083578e-04  9.5250620749350466e-05  7.8372849453362971e-05  2.1832655089103979e-04  3.2744957515097210e-05  4.0543638188573915e-05  4.2550494848240581e-05  2.0455014001232277e-04  2.1200083913507924e-04  4.8906434637587147e-05  6.3318800838824691e-05  2.0447080859124496e-04  2.1092967787300057e-04  1.9468342986641215e-04  1.0727093612455775e-04  1.0632364240201970e-04  2.2839227740096356e-04  2.1883713643577044e-04  2.1695054599682622e-04  9.2297576089655012e-05  6.1365371139824053e-05  2.4972393459887424e-04  2.4803074067949283e-04  2.6050547899734208e-04  2.3264069127345178e-04  2.2749445426901833e-04  6.5320567276837868e-05  7.8290291528345041e-05  2.7074517734185580e-04  2.4455696990222087e-04  2.6880123481040218e-04  9.0898780248318750e-05  1.2306227082210837e-04  1.1073394959035963e-04  1.5383534859143773e-04  1.1651119077455212e-04  2.3242825191588837e-04  2.2860107642875806e-04  2.1241602145198940e-04  6.9615638339041677e-05  2.8248698373913023e-04  2.7031583345984365e-04  6.6494406401518928e-05  4.3730304030788985e-05  1.9991630899684650e-05  3.2777367003074330e-04  8.0504413661037255e-05  2.4078836648047370e-05  6.7595284916718235e-05  7.5044130219587129e-05  1.8412250415636455e-04  2.0178713981220010e-04  2.3163172831743785e-04  2.2567705786622887e-04  3.4427162821994362e-04  3.1719444973106649e-04  3.3753197530714225e-04  3.0613638293502319e-04  1.9384410886361008e-04  3.6681264350820597e-04  3.5432784805420340e-04  4.6577187032229884e-05  6.6051626492129545e-05  1.6562983670827776e-04  4.4922263348920894e-04  4.3529006692588352e-04  4.4807792418876980e-04  4.0966910755991278e-04  1.4598967119674607e-04  2.0744186152256674e-04  4.2351145669486888e-04  3.8487342926076391e-04  3.5285220024823061e-04  3.4329419232767788e-04  3.1618200922395334e-04  3.1500055247148779e-04  2.8112600252323101e-04  2.7292820156133238e-04  2.4321906979627957e-04  2.3126689926614703e-04  2.1886594482041781e-04  2.2300764996688400e-04  6.5117730576731754e-05  6.0573229406455134e-05  3.5187459095722116e-04  3.4764859110368563e-04  3.674