<?xml version="1.0"?>
<VTKFile type="UnstructuredGrid"  version="0.1"  >
<UnstructuredGrid>
<Piece  NumberOfPoints="1143" NumberOfCells="2188">
<Points>
<DataArray  type="Float64"  NumberOfComponents="3"  format="ascii">0 0 0  0 1 0  1 1 0  1 0 0  1.1 -0.1 0  -0.1 -0.1 0  1.1 1.1 0  -0.1 1.1 0  0.5356698477746658 0.5234129785302456 0  0.5896086486035056 0.666701274391088 0  0 0.9499999999997918 0  0 0.8999999999995836 0  0 0.8499999999996529 0  0 0.7999999999999998 0  0 0.7500000000003466 0  0 0.7000000000006934 0  0 0.6500000000010401 0  0 0.6000000000013869 0  0 0.5500000000017335 0  0 0.5000000000020587 0  0 0.4500000000018723 0  0 0.4000000000016644 0  0 0.3500000000014564 0  0 0.3000000000012483 0  0 0.2500000000010403 0  0 0.2000000000008322 0  0 0.1500000000006241 0  0 0.100000000000416 0  0 0.05000000000020799 0  0.04999999999989965 0 0  0.09999999999981467 0 0  0.1499999999997036 0 0  0.1999999999995579 0 0  0.2499999999994121 0 0  0.2999999999992664 0 0  0.3499999999991206 0 0  0.3999999999989749 0 0  0.4499999999988292 0 0  0.4999999999986943 0 0  0.5499999999988151 0 0  0.5999999999989468 0 0  0.6499999999990784 0 0  0.69999999999921 0 0  0.7499999999993417 0 0  0.7999999999994734 0 0  0.8499999999996051 0 0  0.8999999999997368 0 0  0.9499999999998684 0 0  1 0.04999999999989965 0  1 0.09999999999981467 0  1 0.1499999999997036 0  1 0.1999999999995579 0  1 0.2499999999994121 0  1 0.2999999999992664 0  1 0.3499999999991206 0  1 0.3999999999989749 0  1 0.4499999999988292 0  1 0.4999999999986943 0  1 0.5499999999988151 0  1 0.5999999999989468 0  1 0.6499999999990784 0  1 0.69999999999921 0  1 0.7499999999993417 0  1 0.7999999999994734 0  1 0.8499999999996051 0  1 0.8999999999997368 0  1 0.9499999999998684 0  0.9499999999997918 1 0  0.8999999999995836 1 0  0.8499999999996529 1 0  0.7999999999999998 1 0  0.7500000000003466 1 0  0.7000000000006934 1 0  0.6500000000010401 1 0  0.6000000000013869 1 0  0.5500000000017335 1 0  0.5000000000020587 1 0  0.4500000000018723 1 0  0.4000000000016644 1 0  0.3500000000014564 1 0  0.3000000000012483 1 0  0.2500000000010403 1 0  0.2000000000008322 1 0  0.1500000000006241 1 0  0.100000000000416 1 0  0.05000000000020799 1 0  -0.1 1.05000000000004 0  -0.1 1.000000000000079 0  -0.1 0.9500000000001624 0  -0.1 0.9000000000003032 0  -0.1 0.850000000000444 0  -0.1 0.8000000000005848 0  -0.1 0.7500000000007256 0  -0.1 0.7000000000008665 0  -0.1 0.6500000000010508 0  -0.1 0.6000000000012352 0  -0.1 0.5500000000014196 0  -0.1 0.500000000001539 0  -0.1 0.4500000000014195 0  -0.1 0.4000000000013 0  -0.1 0.3500000000011588 0  -0.1 0.3000000000010178 0  -0.1 0.2500000000008986 0  -0.1 0.2000000000007579 0  -0.1 0.1500000000006174 0  -0.1 0.1000000000005272 0  -0.1 0.05000000000040083 0  -0.1 2.671196597248127e-13 0  -0.1 -0.0499999999998666 0  -0.0500000000000906 -0.1 0  -1.730560139634463e-13 -0.1 0  0.04999999999975802 -0.1 0  0.09999999999961506 -0.1 0  0.1499999999994613 -0.1 0  0.199999999999302 -0.1 0  0.2499999999991446 -0.1 0  0.2999999999990088 -0.1 0  0.3499999999988296 -0.1 0  0.3999999999986936 -0.1 0  0.4499999999985143 -0.1 0  0.4999999999984002 -0.1 0  0.5499999999985247 -0.1 0  0.5999999999986493 -0.1 0  0.6499999999987955 -0.1 0  0.6999999999989417 -0.1 0  0.7499999999990659 -0.1 0  0.7999999999992116 -0.1 0  0.8499999999993573 -0.1 0  0.8999999999994526 -0.1 0  0.949999999999584 -0.1 0  0.9999999999997226 -0.1 0  1.049999999999861 -0.1 0  1.1 -0.0500000000000906 0  1.1 -1.730560139634463e-13 0  1.1 0.04999999999975802 0  1.1 0.09999999999961506 0  1.1 0.1499999999994613 0  1.1 0.199999999999302 0  1.1 0.2499999999991446 0  1.1 0.2999999999990088 0  1.1 0.3499999999988296 0  1.1 0.3999999999986936 0  1.1 0.4499999999985143 0  1.1 0.4999999999984002 0  1.1 0.5499999999985247 0  1.1 0.5999999999986493 0  1.1 0.6499999999987955 0  1.1 0.6999999999989417 0  1.1 0.7499999999990659 0  1.1 0.7999999999992116 0  1.1 0.8499999999993573 0  1.1 0.8999999999994526 0  1.1 0.949999999999584 0  1.1 0.9999999999997226 0  1.1 1.049999999999861 0  1.05000000000004 1.1 0  1.000000000000079 1.1 0  0.9500000000001624 1.1 0  0.9000000000003032 1.1 0  0.850000000000444 1.1 0  0.8000000000005848 1.1 0  0.7500000000007256 1.1 0  0.7000000000008665 1.1 0  0.6500000000010508 1.1 0  0.6000000000012352 1.1 0  0.5500000000014196 1.1 0  0.500000000001539 1.1 0  0.4500000000014195 1.1 0  0.4000000000013 1.1 0  0.3500000000011588 1.1 0  0.3000000000010178 1.1 0  0.2500000000008986 1.1 0  0.2000000000007579 1.1 0  0.1500000000006174 1.1 0  0.1000000000005272 1.1 0  0.05000000000040083 1.1 0  2.671196597248127e-13 1.1 0  -0.0499999999998666 1.1 0  0.6213923642409578 0.6585830114950034 0  0.6516426794174569 0.6417719868515346 0  0.6756229798296151 0.6154815547367452 0  0.6879177983018042 0.5827950654730255 0  0.6942485653353557 0.5499607342428319 0  0.6959545528448904 0.5172931417566832 0  0.6948976592764528 0.4850188471180037 0  0.6903246312916573 0.453268681513494 0  0.6827753938762499 0.4219756724374463 0  0.6726396455644991 0.3910877616548408 0  0.6589990661640479 0.3612198562383048 0  0.6405057172712929 0.3331081621677238 0  0.6151991154837609 0.3096663654179572 0  0.5840614439388815 0.293850710373991 0  0.550577399565102 0.2904284508832876 0  0.5187008307007364 0.2945321595244835 0  0.4887677320673667 0.3029404902639912 0  0.4604470012345382 0.3137710754595284 0  0.4334985698979745 0.3264475643921584 0  0.4076239595043351 0.3404851417778457 0  0.3828204165227443 0.3558609053072904 0  0.3584418954160567 0.3719269209551818 0  0.3345644998034396 0.388895290750212 0  0.3117515215146401 0.4074149114601866 0  0.2897958434927058 0.427277870550271 0  0.2688533528377838 0.4486306304367334 0  0.2494632994678946 0.4721811530452161 0  0.2331151570365005 0.4992620869102593 0  0.2336617243616184 0.5339149387240779 0  0.2512215954471938 0.562160588640382 0  0.275146844527716 0.5827746376792464 0  0.3005451469789074 0.6000679079066804 0  0.3269763521770707 0.6151176838393337 0  0.3537847890777489 0.6286006687955423 0  0.38132179377583 0.6401050785560303 0  0.409495608466823 0.6496248773285387 0  0.4381672821145927 0.6575116578327909 0  0.4674252560566035 0.663120909235731 0  0.4970233544225018 0.6673943816850361 0  0.5272633099584602 0.6699488989050377 0  0.5581000280976169 0.6701290269529763 0  0.3758932550360193 0.6041415187818286 0  0.3623847786514235 0.4075350649711345 0  0.6234026355478351 0.3624340992764115 0  0.5148914832057454 0.3272826726611081 0  0.2951643398520323 0.4630603387573676 0  0.6277087640155161 0.6208265038220825 0  0.4116813491337404 0.3726829400559061 0  0.4306499679067783 0.6228834505255496 0  0.3231351455105333 0.5799614819501988 0  0.4608704250337636 0.346784672683035 0  0.6597871955031273 0.4433221003188647 0  0.6679523716162707 0.503437870155427 0  0.6626216038035156 0.5652430792282094 0  0.2752726337670036 0.5436169464885794 0  0.5741986372640715 0.6458923218088743 0  0.4875719802704748 0.6345414860332224 0  0.5692372280340539 0.3199968088738865 0  0.2628776100928101 0.5076537267662704 0  0.3871730441869991 0.390687306776796 0  0.3908565091305878 0.4264889300943809 0  0.3657758030753616 0.4440639170282516 0  0.3936717901004207 0.4625154286131707 0  0.4202722350909838 0.4436669278917033 0  0.4220754480285496 0.4846438060316704 0  0.3687149033498225 0.4809165610885948 0  0.4541566225732621 0.4639522059613804 0  0.4519921678758573 0.5165146971804007 0  0.4169313305538673 0.5239752670560756 0  0.4480696687113693 0.4227494042479691 0  0.4825421130826563 0.4405206945030932 0  0.4552949586517065 0.5615613287518538 0  0.4225012009912754 0.5776041276098305 0  0.4767145384248839 0.4031815746965708 0  0.507690959556191 0.4176972077902678 0  0.5027159046451337 0.3833465763610294 0  0.5353194473367385 0.3957619627291044 0  0.5486252560078395 0.4345341312608075 0  0.5758966385913642 0.4080164663951529 0  0.5750784481367294 0.456770816468472 0  0.5622745685455425 0.3723222330109634 0  0.6056949939831006 0.4288765534193971 0  0.3422267338428416 0.4625746722559388 0  0.3445312179644248 0.5002089903524443 0  0.3700333176538827 0.5180555835734244 0  0.3447245004003904 0.5343171614952714 0  0.3155523618886323 0.5162859150395053 0  0.3721556617840644 0.5591412414963138 0  0.5941785774924387 0.378263746027365 0  0.4461817025341143 0.3833224213512841 0  0.5265801450543363 0.3613564850761576 0  0.3938136694039788 0.5010260837901658 0  0.3389215267790264 0.4241477493580674 0  0.3490342753778102 0.5935355959385138 0  0.4023042681618234 0.6120513435554334 0  0.4171420654223436 0.4089461833426869 0  0.4580754779821783 0.6299151499191558 0  0.478403641450136 0.6019662765750873 0  0.5074747210581219 0.6062057372489229 0  0.4971857473328422 0.5727023524295732 0  0.5286127936588765 0.5774405429509792 0  0.5755353353621903 0.5548037635508724 0  0.5605801653436679 0.5921996614317037 0  0.5790098366328076 0.5109902358110801 0  0.6081650703837956 0.5340244324365598 0  0.6059918918126465 0.5702205101605849 0  0.6171529104646922 0.4943250168457213 0  0.5168106368005532 0.6387409523066961 0  0.6352582574085914 0.5522368485385503 0  0.6315995234850952 0.5872204798401762 0  0.6047320273035841 0.6026439774406523 0  0.3162188749553356 0.4448283158008224 0  0.2983913743771923 0.5656582397932515 0  0.5506189945202306 0.3409836427354184 0  0.4940318617774481 0.3529351354395595 0  0.6400880964141752 0.5180390710536628 0  0.6650536392552846 0.4735284929988687 0  0.6357191590748195 0.4654359584320686 0  0.2760378874399898 0.4821836605807133 0  0.2872343609351165 0.5144529538950785 0  0.6513128571719693 0.4126655013187353 0  0.5482102843429824 0.6415353800498749 0  0.3957918094105585 0.5818966831093803 0  0.453236240799337 0.5948972679869621 0  0.6666925036458365 0.5342551380596007 0  0.5397643791750955 0.6114146891067533 0  0.5488940563697059 0.4781878482812424 0  0.3188063916776496 0.4822024644520067 0  0.6446344543472582 0.385815310291995 0  0.5867591610983859 0.3468453498093115 0  0.6184205212347054 0.4011879467707488 0  0.656094
[...]
<PointData  Scalars="v"> 
<DataArray  type="Float64"  Name="v"  format="ascii">-2.2213470698907044e-21  9.9161591870402420e-20  2.4338895253679761e-19  3.2702768674755706e-20  -1.8772850998129836e-21  4.6862260552300768e-22  -9.7458775578012134e-22  -5.2381729013096733e-21  1.2578055843233963e-02  9.8972879181873294e-03  4.6204117683913486e-20  1.3420086127945887e-19  3.5707614596121650e-19  1.0904153781877559e-18  -6.5850779832485568e-19  7.9403841355244746e-20  9.5080802273267185e-19  1.3326675292918962e-18  8.5602767411690221e-19  2.6999489419380907e-19  3.3890546867068951e-18  1.1019824435500189e-18  6.2201867356740810e-19  9.7490610396042600e-19  0.0000000000000000e+00  5.0410461168192667e-19  -1.2807155825453473e-19  8.6400197904295202e-20  -1.2492928430237237e-20  5.8047908956425826e-20  7.3027924778880998e-20  -2.9469447897143033e-19  5.5888098905483420e-19  3.2455570251554069e-19  1.2603596416198339e-19  2.2843938235954511e-18  7.2573209765893983e-19  6.5786967109910981e-20  4.2190782156920077e-19  2.5507752541801940e-19  2.2707663641724795e-19  -6.0028668376192746e-19  -1.0748720575081163e-19  -9.1493962795136819e-19  1.6169957884912146e-19  2.9301524584111473e-19  -1.3452541973925128e-19  -3.2960936165384784e-19  -3.3130884795211219e-19  2.4525533610237577e-19  1.4766812786685763e-18  -1.7367291154054284e-18  -6.3556381423453773e-19  4.7817505030321148e-20  -9.1062924550981881e-20  -1.0351690877428889e-17  -3.3487773049498776e-18  3.9610397789207542e-18  -4.9564696799835367e-18  -2.7981176665213075e-19  1.5158925604255985e-20  1.0855743049528954e-19  -2.8781826458308772e-18  1.3733459798748511e-18  1.8814977919007883e-18  -1.2176027840170421e-18  -8.5453248748708243e-20  8.2889478403920240e-19  7.3289272848703508e-20  3.1799469758811379e-19  -7.4246529766311448e-20  3.1673998295735130e-19  3.8501075324565528e-18  1.3298669029157434e-19  5.2472242843584063e-18  -4.0403050720658902e-18  -1.0025986337239912e-18  4.4615796224049022e-18  -2.7995181688755334e-19  -8.8456127180690074e-20  -3.3221774158876025e-18  7.1245237325319741e-20  -7.8646584233540383e-20  1.8296661074544694e-18  1.5795097735444953e-19  2.5039401058919354e-19  1.3010520361728472e-21  1.2584237096709925e-20  4.5086303411024070e-21  1.7152303772101948e-21  9.3453217879623992e-20  7.6273145369394034e-20  -4.2802853010101727e-20  -6.6905129423001487e-20  1.3776663790344118e-19  2.2102230316399788e-19  8.9806451758349410e-20  1.1140346220959796e-19  3.6321944016289476e-19  2.2555225632394426e-19  8.9438144580089983e-20  1.8773411900981914e-19  4.8851015673067210e-20  3.2498208863747478e-20  -1.3569953709193535e-20  4.9573089066688861e-21  -1.5639114111546216e-21  -7.7628819955887154e-22  2.0100422575618604e-22  -2.0086644705099590e-21  6.4091394930705042e-21  1.4427915973470844e-20  -1.1483784333984799e-20  4.6736507952012102e-21  6.6790478330284718e-21  -1.6288369836543652e-20  6.3091748006765781e-20  2.2778542477723768e-19  1.5169763970878549e-19  1.4373845117733787e-20  4.2480863212328212e-20  3.6982832143996435e-20  1.1115618598147305e-20  -3.3806138441736724e-20  -5.9704714043464514e-20  -7.2327448412529673e-20  -3.3498129801377209e-21  5.4849937309802270e-20  -2.5516289947846152e-20  -3.3301931708968703e-20  -5.4260453181024862e-21  5.8720990146902874e-21  -2.7478705656028267e-21  7.4081787667276846e-21  3.4564805266023636e-20  3.1339747780215976e-20  2.0667080163559938e-20  -1.4856407088289600e-22  -4.8846864167989987e-20  -3.2186441754040414e-20  1.1521864374641551e-20  3.0328638687733941e-20  -3.7068162319124929e-22  -3.7385168039837028e-20  -5.9984227006005004e-20  -3.2374048987980732e-20  3.0928480107725534e-21  6.8732400207502828e-21  4.0980508626466130e-21  -3.1768643834764506e-20  -2.7933465115465680e-21  2.8299733267202298e-21  -9.0613589172351908e-21  1.3949379843859823e-21  2.3386909354278074e-21  -2.3876553976408237e-21  9.8855237782103464e-21  1.7485545266595347e-20  2.2645513987503837e-20  3.1762767465102090e-20  -5.5517053022522178e-21  3.6581124543057990e-20  6.5414584830716520e-20  7.2655158676773723e-20  5.5716948212635334e-20  -2.0202196180692369e-20  -8.1057650368231653e-20  -1.4835465364177961e-20  -5.2627682153446480e-21  -3.1667172953334993e-20  -8.2260951018430344e-21  -1.4904797985461493e-20  2.2042076843090904e-20  3.6926569173903700e-20  2.6194905942844439e-20  -1.4977159619316749e-20  2.8541980293164392e-21  6.0426639927247553e-21  9.6421020326480297e-03  9.4159842540328421e-03  9.2866591710786539e-03  9.3118376531198012e-03  9.3574325041768693e-03  9.3911206483006764e-03  9.3804866390693915e-03  9.3325257522420615e-03  9.2328501095143185e-03  9.0769839183954260e-03  8.8777239880839277e-03  8.6563061390147189e-03  8.4951666021562261e-03  8.4403871071687692e-03  8.5760125458477603e-03  8.7869045951376439e-03  9.0002771586542053e-03  9.1636477532650740e-03  9.2634438029672653e-03  9.2848353836683314e-03  9.2214372818374604e-03  9.0603553863278022e-03  8.8124976854141585e-03  8.4872427324144371e-03  8.0914628690757183e-03  7.6370937731553758e-03  7.1516824987028840e-03  6.7258673758744071e-03  6.7259202363228916e-03  7.1835132920495355e-03  7.7877803080308797e-03  8.3650262806216277e-03  8.8791234027970328e-03  9.3269011992142235e-03  9.6904464355474784e-03  9.9809610673674849e-03  1.0186195865484615e-02  1.0301704640513176e-02  1.0324331155234821e-02  1.0257392105861900e-02  1.0108243815180475e-02  1.0461007481688059e-02  1.0044895005842774e-02  9.8950895390042225e-03  1.0026303393242082e-02  8.8236440239402511e-03  1.0536025973786037e-02  1.0367788739253999e-02  1.1094774095431284e-02  9.4604895823776486e-03  1.0344657166521585e-02  1.0372653079071871e-02  1.0496493853674023e-02  1.0442704007226489e-02  8.2945653129628989e-03  1.0835260799047494e-02  1.1344377558104088e-02  9.5802589004859110e-03  7.9508408722656059e-03  1.0286233381471124e-02  1.0869319059735590e-02  1.0545177313727975e-02  1.1295995597818442e-02  1.1577499407658436e-02  1.1892302344364055e-02  1.0885151041729548e-02  1.2169596349566715e-02  1.2328298322622281e-02  1.1852169102657047e-02  1.1677294318583557e-02  1.2144327620640043e-02  1.2160120475802524e-02  1.1610724385619388e-02  1.1602927329857420e-02  1.1919833884264883e-02  1.1321758992580630e-02  1.1527523574557516e-02  1.2016948491836847e-02  1.1428098568160022e-02  1.2007597943786268e-02  1.0889430213411266e-02  1.1292125737622742e-02  1.0124733204582946e-02  1.0364192547622560e-02  1.0977839709035117e-02  1.0328521693104588e-02  9.5501788482090112e-03  1.0850396207070892e-02  1.0644983646993128e-02  1.0995384517943184e-02  1.0835241942434197e-02  1.1454844282087718e-02  9.7020060502284698e-03  9.9879139201373337e-03  1.0844040103615586e-02  1.1072424812675273e-02  1.1252984158386306e-02  1.1853226256699302e-02  1.1877683073399621e-02  1.2326218038656645e-02  1.2259032230727718e-02  1.2127656371579658e-02  1.1882960773003080e-02  1.2219823100715772e-02  1.1768526134511405e-02  1.1565171101799183e-02  1.1610135208259107e-02  1.1301106821687543e-02  1.1142989674678050e-02  1.0911683624172679e-02  1.1189887747516176e-02  9.3031812117501788e-03  8.8761046891222915e-03  1.0240212083205908e-02  1.0636767329656174e-02  1.1151628871811500e-02  1.0469889918238523e-02  1.1081907284008229e-02  8.3316105406850745e-03  8.6972391938885275e-03  1.0209433698284663e-02  1.1136195098985070e-02  1.1106799551997693e-02  1.1767598455603987e-02  1.0502917315320829e-02  1.1728444320705392e-02  1.2402770765290736e-02  9.5916380105611435e-03  9.9380607699013756e-03  1.0063280560527963e-02  1.0683875014659330e-02  1.0232137005782538e-02  1.2516187392116282e-02  1.2570903536829088e-02  1.0240405026573206e-02  9.6208085979891701e-03  1.0762843664584892e-02  9.5730784319340689e-03  1.1396513943491645e-02  1.1028026936106949e-02  1.0845533858420024e-02  1.1583153478417063e-02  1.0999779198120231e-02  7.6748730474543638e-03  9.4364801008348272e-03  9.0203239361174303e-03  1.0074975153362370e-02  1.2280634571710370e-02  1.1970771772086750e-02  1.1699193255165059e-02  1.2315771469624696e-02  9.9714996649646840e-03  1.1973041785653575e-02  1.2168709322295777e-02  9.3192023681414188e-03  1.1392993768621535e-02  9.0183285633761694e-03  1.1536522602977543e-02  1.1690333934614824e-02  8.8662386431591200e-03  8.2105185823290530e-03  9.3225818326919327e-03  9.8432424816626892e-03  8.2639040931693532e-03  8.4809876866908107e-03  7.3751476041874530e-03  8.7668814477685330e-03  9.3395213214162009e-03  8.7815083129297884e-03  8.8084949366414849e-03  7.9543565641167248e-03  8.3732002743386238e-03  4.3168112627619583e-04  5.5740981912903297e-04  6.7315056979551726e-04  4.4528092925670099e-04  9.3032148658604914e-04  6.9434450617364884e-04  6.1590565282357670e-04  7.0865387881912344e-04  9.0116884217139538e-04  5.6260610976515736e-04  1.0589159206684275e-03  5.5594262809680116e-04  9.5931163691036182e-04  9.6958558039574191e-04  8.8570894623567435e-03  7.1202762868709584e-03  1.1829446747488449e-03  1.1219214647883186e-03  9.7103827293126433e-03  6.7626172042809722e-04  5.6144263822036739e-04  8.3532558100756469e-04  4.6322613282872725e-04  6.3925803458024814e-04  3.4007904103466402e-04  5.8533338373604809e-04  3.5830829361353610e-04  4.4802216739450143e-04  3.3725265861237451e-04  3.3399725496816322e-04  7.9664048001316032e-03  7.6676029883358124e-03  7.5899442746708637e-03  7.2225060702425228e-03  7.1149418119844246e-03  7.2664944378034984e-03  6.7563628023992357e-03  6.7412891648808600e-03  6.0613445154014522e-03  6.0207647334905136e-03  5.2652209372551131e-03  5.3105344988913349e-03  5.1764496613801586e-03  5.9457692990308149e-03  5.0267866600709659e-03  5.7980382965537253e-03  4.8149752300627666e-03  5.5640463266829823e-03  4.5378223994797101e-03  5.2379099736920287e-03  4.1928696360500122e-03  4.8253073666465187e-03  5.8205058506419424e-03  5.3267954608703554e-03  6.2598434971345438e-03  5.6721860400736788e-03  4.7638933355670038e-03  5.0308579909376068e-03  4.1512145372829563e-03  5.8796077442595917e-03  5.1411985754751671e-03  5.9110406161599956e-03  5.0901188261266699e-03  4.3467113520698000e-03  4.2219133818807968e-03  4.9233457759557432e-03  3.9598552537859774e-03  4.5586147093785428e-03  3.8115166712346577e-03  6.4780199132256069e-03  4.4169455545758612e-03  4.4767247323253710e-03  3.4964323090150322e-03  6.6221309688940981e-03  6.6035239688136942e-03  4.0196962559160762e-03  7.4881495724986825e-03  6.9549468671468648e-03  7.2721451193249204e-03  6.6660190109216607e-03  6.9664986978592589e-03  6.2446182052085519e-03  6.5001400160253717e-03  5.7181085012291029e-03  5.8895760939880809e-03  5.0892087306604597e-03  4.9118894669869153e-03  5.1597674752821530e-03  5.9450527863284981e-03  5.1124908394231767e-03  5.8813860337208973e-03  4.2844614781612682e-03  4.9593454143896203e-03  5.6923226703958791e-03  4.0666686161452033e-03  3.4487538371609748e-03  4.3400849237412503e-03  4.6876701729197754e-03  5.3981646155757974e-03  3.2058372367866220e-03  6.3829449289956857e-03  6.0580737784483168e-03  5.0278653140215929e-03  5.6654778108174526e-03  4.5949016522301607e-03  5.2118624525735232e-03  6.3444698566290370e-03  5.7473917143283865e-03  4.7230353346876018e-03  5.2041650169237378e-03  6.1745446035353681e-03  5.5958461938693986e-03  4.6032266828024259e-03  4.9407953953997533e-03  5.8671750058848088e-03  5.1344391796029412e-03  6.1696415422733252e-03  5.1971235857018860e-03  5.9954712903843793e-03  4.3687526342919272e-03  5.0449679562705099e-03  5.7197582240552849e-03  4.7288816814198874e-03  5.3142451605483901e-03  6.3212371927990471e-03  5.8407737337604218e-03  6.8520518924103171e-03  6.2963400289375113e-03  5.2406227572383947e-03  5.6328634028659647e-03  6.7008697069981657e-03  5.9870223830683911e-03  6.9944265013104469e-03  6.2398611760575767e-03  7.1942737413529904e-03  6.3775083620277945e-03  7.2550947116594372e-03  6.4179325410027369e-03  7.1680701521182133e-03  6.3453370768032525e-03  7.0303312049456342e-03  6.1699178650559275e-03  6.7277406222854101e-03  5.8807910146401864e-03  6.3636037720091639e-03  5.4926260353597607e-03  5.8607818008447141e-03  5.2808822494410648e-03  4.9715001139108298e-03  5.2334418873030940e-03  5.4171063352164818e-03  4.1069653516057980e-03  5.5444480321985550e-03  4.5740828807744206e-03  4.0469543186783998e-03  3.6428941559166401e-03  3.9644907644035641e-03  7.2531567679316325e-03  2.6361404089302294e-03  4.9286394597448328e-03  3.7111285975391464e-03  3.7053866159679895e-03  3.1456828929469580e-03  3.5564555614106576e-03  2.7605104965021227e-03  6.8026323494726013e-03  6.8237209246831080e-03  7.1306707125767185e-03  7.7947038558954067e-03  6.0520585568902743e-03  5.3579812008965749e-03  4.5058448473152459e-03  4.5633763215590286e-03  3.9364510594528598e-03  3.1418644186793918e-03  2.7411975578492094e-03  3.1015819642237941e-03  7.8710553642691462e-03  5.8935641107124770e-03  3.9261641818434433e-03  6.9959974639642094e-03  5.4608143811755144e-03  4.5504874506981071e-03  3.7040565791082456e-03  5.2784206034555111e-03  4.4221713727850588e-03  5.1350834232639269e-03  4.3783598343709786e-03  4.8315664072741717e-03  4.1605693992393207e-03  4.7651083783857356e-03  6.5440328198819800e-03  2.0040895754991992e-03  3.4524253394463658e-03  2.9540557981004530e-03  7.3946444286130337e-03  3.5757485854489533e-03  2.8109184872062674e-03  3.1866817591967253e-03  2.4718333845184645e-03  6.2240134626000195e-03  6.1487778249424262e-03  1.8699883955992562e-03  7.2796040275004579e-03  6.5126876453665125e-03  6.7503088215195278e-03  7.1075210068413993e-03  3.6923813079488776e-03  2.2549149430744026e-03  1.9143042323314784e-03  2.4246217779221868e-03  5.9469384039059926e-03  6.3114593414599750e-03  2.9817546494991030e-03  3.5215538329551382e-03  7.7499474872287288e-03  8.0622009656966635e-03  2.6806526346134065e-03  3.1482824869279369e-03  2.1997516008831711e-03  2.5637490506683828e-03  7.5738105670135423e-03  7.8495462901652033e-03  7.1936345004052684e-03  5.8605571274518622e-03  1.8905994011683333e-04  3.4206045688178928e-03  7.5207728457548787e-03  6.3920063051326496e-03  4.5025713065830154e-03  2.9424648011531071e-03  2.0021683424313740e-03  7.2603544391399710e-03  7.1957979607120666e-03  3.5560037471427724e-03  3.5863839025089637e-03  4.4338257860999748e-03  8.2774944915571542e-03  7.8014409189340484e-03  7.5579312561354587e-03  3.3435265868677895e-03  2.4807576826946297e-03  3.4739334005678951e-03  2.5393650308536534e-03  3.5168164766074049e-03  3.3791680500152156e-03  3.0431287955312225e-03  6.4661743452934526e-03  1.7364039060744668e-03  1.9845764182226805e-03  8.7323494092145879e-03  8.5264372781495134e-03  8.3741420364445186e-03  2.7359607932357539e-03  2.0338429843355333e-03  1.3833524597658502e-03  2.8187451041015374e-03  1.8266370353353836e-03  8.5286768122996952e-03  3.4261149444732163e-03  2.5700718592811663e-03  2.6311312705206407e-03  3.5962127177720676e-03  2.8514304395717400e-03  2.4486274036117210e-03  3.3985917292273459e-03  3.8247641049223412e-03  3.2475718648424332e-03  2.8839582273561138e-03  2.3524011781989439e-03  2.6483684178734367e-03  1.8444315911550406e-03  2.0257640157460943e-03  1.3127012836452248e-03  2.7264167526725512e-03  1.8537079042516501e-03  2.6638065591462821e-03  2.4020558450991393e-03  8.0662431172228728e-03  7.8340373983694783e-03  8.1680254073037677e-03  7.5904901346828865e-03  8.0024813027943995e-03  8.9440341424989432e-03  1.3286007620217275e-03  5.7744204653136172e-03  2.1177100089833497e-03  2.4774430809817636e-03  1.5407879277086148e-03  1.5529550915171671e-03  2.9714986041325103e-04  2.7049066238124108e-04  2.1079444718091547e-04  1.1940405127506791e-03  1.5984322631136271e-03  1.4150000170362164e-03  1.1946308925812972e-03  2.4899723686852334e-03  2.7541805371563048e-03  2.2550107170669319e-03  2.0819492708656785e-03  1.3912922259245392e-03  7.7838324420844204e-03  7.7841741325195913e-03  7.6492008592075880e-03  2.2619036652397327e-03  2.5391308807741052e-03  8.0625631536144545e-03  2.5049395143005720e-03  3.4617613876969438e-03  2.3471068118081080e-03  3.3297506293996559e-03  2.0954996627701120e-03  3.1113109887480226e-03  3.6431089913372258e-03  2.8205282939578178e-03  8.1438218139304828e-03  6.5944188390297019e-03  3.5839854339405038e-03  2.7788537008974724e-03  2.6018580185818633e-03  1.9257488002358018e-03  1.5109169550707781e-03  8.3835917019366990e-03  7.8255668503246240e-03  6.5024875917261901e-03  7.0266077465342067e-03  5.7286093643943627e-03  8.6848137807418839e-03  7.9706927768968434e-03  8.0530032081824760e-03  8.4568911589638345e-03  8.0660804186588088e-03  8.4093913261536965e-03  7.9836563525229939e-03  8.1895538655578116e-03  7.9591592948364855e-03  8.3922636472946194e-03  1.8168806326528456e-03  8.1700008276412923e-04  8.1338345542211043e-03  7.9981501584842629e-03  8.1639368359721597e-03  7.5955241192967966e-03  7.7610231413582946e-03  1.8156655212817185e-03  5.4566530776095253e-03  5.4705906378316313e-03  8.3017204908833013e-03  7.8293335162775771e-03  1.4792378352542163e-03  7.4702574729453757e-03  2.9648765077993672e-03  7.3861374445032633e-03  4.3034472686527469e-03  8.2783884789775289e-03  8.1872018403967694e-03  8.9240899225096499e-03  9.5881796559676232e-04  3.3127328584982149e-03  6.2158953998510021e-03  5.4871623454639641e-03  1.2893563031204111e-03  1.2511759136708865e-03  7.2597833913693127e-04  6.4909522500750782e-03  6.7235827568190654e-03  7.3823452426386273e-03  7.0089907701699128e-03  7.6531786459169068e-03  7.2714368765080190e-03  7.8980712415284704e-03  8.2736714717504562e-03  8.4373743731520848e-03  8.7690835232456556e-03  8.2211801937387401e-03  8.4182945423106371e-03  8.4778174696229711e-03  6.8611800279975866e-03  7.1118294314667626e-03  4.6014570302495188e-03  6.2074067973491315e-03  7.2799065806908808e-03  9.5558950351075801e-03  9.0280405430984700e-03  8.8498858523646806e-03  7.7183425079479671e-03  6.9012971680926308e-03  3.1934852110251338e-03  8.8039643326513033e-03  7.9311991900832667e-03  8.5937848973351525e-03  8.7222270587311718e-03  9.2127011320261819e-03  9.2885998287151016e-03  8.8607120022985153e-03  9.3276488834969848e-03  9.6427089892555818e-03  8.9172851386664417e-03  9.3190417083206089e-03  8.8524241770095054e-03  9.2728266071308105e-03  8.7043558380869301e-03  8.3640770427899948e-03  8.0673934820101340e-03  9.6363771515553965e-03  6.6891462111675244e-03  4.2400998577980008e-03  8.5628717697810598e-03  7.9152757149602920e-04  6.2188098289614631e-04  6.5092823177255914e-03  1.7132593681113042e-03  1.2422441932848365e-03  7.6548019053307541e-03  6.7856522816836717e-03  8.5964756107273863e-03  1.1115967929814570e-03  8.9774916997213128e-03  1.7242369757556517e-03  1.0960203328885998e-03  6.6501727044952818e-04  7.8484930413090948e-04  1.8841981289820775e-03  1.0759573570328276e-03  6.3841275742388716e-04  1.9627900644648461e-03  1.8887075884275112e-03  8.1339508804977956e-04  1.3760525839895516e-03  6.6512630129794657e-03  5.6245135980859963e-04  6.2541948311694499e-04  8.0886642397974828e-03  8.4959627819898471e-03  4.3450466733755922e-03  9.0926531205299144e-04  5.3365377412755972e-04  8.8325228421587605e-04  7.8918876110930082e-04  7.1211641147848554e-03  2.8206333866942807e-03  1.0581335159422576e-03  1.0470500739107387e-03  1.0755263383847231e-03  2.3420651473606557e-03  2.1078874015443335e-03  1.0110091180964783e-03  2.0702958324947097e-03  8.0966643527686597e-03  8.0168319145804152e-03  6.0730133267114126e-04  1.5223282502261181e-03  5.7797115655611826e-04  4.1571154986562577e-04  9.7137955030185744e-04  8.2593804391417798e-04  1.1830816558301596e-03  6.6628591052748827e-03  8.5017696968303063e-03  2.2100544429873342e-03  1.9681922893653057e-03  3.2093311568246242e-03  6.6536813251173938e-03  7.3088600495865332e-03  8.9469161583667373e-04  2.0306624152920884e-03  1.8136087188538714e-03  2.0587871363155468e-03  9.9162298050701862e-04  2.1995428719901876e-03  8.6651482342615081e-04  1.6081810208300833e-03  4.6514052373855712e-03  6.4868697856810924e-04  2.5655544796635027e-04  4.5784730939381173e-04  9.3788