<?xml version="1.0"?>
<VTKFile type="UnstructuredGrid"  version="0.1"  >
<UnstructuredGrid>
<Piece  NumberOfPoints="1242" NumberOfCells="2386">
<Points>
<DataArray  type="Float64"  NumberOfComponents="3"  format="ascii">0 0 0  0 1 0  1 1 0  1 0 0  1.1 -0.1 0  -0.1 -0.1 0  1.1 1.1 0  -0.1 1.1 0  0.5011740420054976 0.5063023814579058 0  0.5969147956720379 0.732138010211175 0  0 0.9499999999997918 0  0 0.8999999999995836 0  0 0.8499999999996529 0  0 0.7999999999999998 0  0 0.7500000000003466 0  0 0.7000000000006934 0  0 0.6500000000010401 0  0 0.6000000000013869 0  0 0.5500000000017335 0  0 0.5000000000020587 0  0 0.4500000000018723 0  0 0.4000000000016644 0  0 0.3500000000014564 0  0 0.3000000000012483 0  0 0.2500000000010403 0  0 0.2000000000008322 0  0 0.1500000000006241 0  0 0.100000000000416 0  0 0.05000000000020799 0  0.04999999999989965 0 0  0.09999999999981467 0 0  0.1499999999997036 0 0  0.1999999999995579 0 0  0.2499999999994121 0 0  0.2999999999992664 0 0  0.3499999999991206 0 0  0.3999999999989749 0 0  0.4499999999988292 0 0  0.4999999999986943 0 0  0.5499999999988151 0 0  0.5999999999989468 0 0  0.6499999999990784 0 0  0.69999999999921 0 0  0.7499999999993417 0 0  0.7999999999994734 0 0  0.8499999999996051 0 0  0.8999999999997368 0 0  0.9499999999998684 0 0  1 0.04999999999989965 0  1 0.09999999999981467 0  1 0.1499999999997036 0  1 0.1999999999995579 0  1 0.2499999999994121 0  1 0.2999999999992664 0  1 0.3499999999991206 0  1 0.3999999999989749 0  1 0.4499999999988292 0  1 0.4999999999986943 0  1 0.5499999999988151 0  1 0.5999999999989468 0  1 0.6499999999990784 0  1 0.69999999999921 0  1 0.7499999999993417 0  1 0.7999999999994734 0  1 0.8499999999996051 0  1 0.8999999999997368 0  1 0.9499999999998684 0  0.9499999999997918 1 0  0.8999999999995836 1 0  0.8499999999996529 1 0  0.7999999999999998 1 0  0.7500000000003466 1 0  0.7000000000006934 1 0  0.6500000000010401 1 0  0.6000000000013869 1 0  0.5500000000017335 1 0  0.5000000000020587 1 0  0.4500000000018723 1 0  0.4000000000016644 1 0  0.3500000000014564 1 0  0.3000000000012483 1 0  0.2500000000010403 1 0  0.2000000000008322 1 0  0.1500000000006241 1 0  0.100000000000416 1 0  0.05000000000020799 1 0  -0.1 1.05000000000004 0  -0.1 1.000000000000079 0  -0.1 0.9500000000001624 0  -0.1 0.9000000000003032 0  -0.1 0.850000000000444 0  -0.1 0.8000000000005848 0  -0.1 0.7500000000007256 0  -0.1 0.7000000000008665 0  -0.1 0.6500000000010508 0  -0.1 0.6000000000012352 0  -0.1 0.5500000000014196 0  -0.1 0.500000000001539 0  -0.1 0.4500000000014195 0  -0.1 0.4000000000013 0  -0.1 0.3500000000011588 0  -0.1 0.3000000000010178 0  -0.1 0.2500000000008986 0  -0.1 0.2000000000007579 0  -0.1 0.1500000000006174 0  -0.1 0.1000000000005272 0  -0.1 0.05000000000040083 0  -0.1 2.671196597248127e-13 0  -0.1 -0.0499999999998666 0  -0.0500000000000906 -0.1 0  -1.730560139634463e-13 -0.1 0  0.04999999999975802 -0.1 0  0.09999999999961506 -0.1 0  0.1499999999994613 -0.1 0  0.199999999999302 -0.1 0  0.2499999999991446 -0.1 0  0.2999999999990088 -0.1 0  0.3499999999988296 -0.1 0  0.3999999999986936 -0.1 0  0.4499999999985143 -0.1 0  0.4999999999984002 -0.1 0  0.5499999999985247 -0.1 0  0.5999999999986493 -0.1 0  0.6499999999987955 -0.1 0  0.6999999999989417 -0.1 0  0.7499999999990659 -0.1 0  0.7999999999992116 -0.1 0  0.8499999999993573 -0.1 0  0.8999999999994526 -0.1 0  0.949999999999584 -0.1 0  0.9999999999997226 -0.1 0  1.049999999999861 -0.1 0  1.1 -0.0500000000000906 0  1.1 -1.730560139634463e-13 0  1.1 0.04999999999975802 0  1.1 0.09999999999961506 0  1.1 0.1499999999994613 0  1.1 0.199999999999302 0  1.1 0.2499999999991446 0  1.1 0.2999999999990088 0  1.1 0.3499999999988296 0  1.1 0.3999999999986936 0  1.1 0.4499999999985143 0  1.1 0.4999999999984002 0  1.1 0.5499999999985247 0  1.1 0.5999999999986493 0  1.1 0.6499999999987955 0  1.1 0.6999999999989417 0  1.1 0.7499999999990659 0  1.1 0.7999999999992116 0  1.1 0.8499999999993573 0  1.1 0.8999999999994526 0  1.1 0.949999999999584 0  1.1 0.9999999999997226 0  1.1 1.049999999999861 0  1.05000000000004 1.1 0  1.000000000000079 1.1 0  0.9500000000001624 1.1 0  0.9000000000003032 1.1 0  0.850000000000444 1.1 0  0.8000000000005848 1.1 0  0.7500000000007256 1.1 0  0.7000000000008665 1.1 0  0.6500000000010508 1.1 0  0.6000000000012352 1.1 0  0.5500000000014196 1.1 0  0.500000000001539 1.1 0  0.4500000000014195 1.1 0  0.4000000000013 1.1 0  0.3500000000011588 1.1 0  0.3000000000010178 1.1 0  0.2500000000008986 1.1 0  0.2000000000007579 1.1 0  0.1500000000006174 1.1 0  0.1000000000005272 1.1 0  0.05000000000040083 1.1 0  2.671196597248127e-13 1.1 0  -0.0499999999998666 1.1 0  0.6208497211610731 0.7213121296205303 0  0.6435788922126839 0.7074526480349349 0  0.6649040615786631 0.6904576212936931 0  0.6841302609887225 0.6709060569203954 0  0.7005170453568192 0.6490785727756625 0  0.7142891435296651 0.6258546855004918 0  0.725266431862446 0.6015133782110801 0  0.7332635682555646 0.5764944205848097 0  0.7388509840195504 0.5512460157318584 0  0.7420353555946552 0.5259467335140734 0  0.7424622272908044 0.5008231240620161 0  0.7410483033024934 0.4759761660088238 0  0.7374198974133965 0.451476473320655 0  0.7317182043127188 0.4275155200069533 0  0.7243390889341375 0.403970913867414 0  0.7144350130327822 0.38097420231815 0  0.7021389421812175 0.3587640595353386 0  0.6874631383763091 0.3374075133593612 0  0.670354948025945 0.3173256341619662 0  0.6509288465341091 0.2990354463251483 0  0.6293826192475166 0.28307540062185 0  0.6059508087762493 0.2698162537209552 0  0.581130399164744 0.25955541182666 0  0.5554116123492336 0.2523132149234262 0  0.5292606947381805 0.2484268693337438 0  0.5033235722826321 0.24771855984856 0  0.478252585448214 0.2496293296756646 0  0.4547292955342274 0.253034173182094 0  0.4322000401374308 0.2580642973618834 0  0.4105443014970445 0.2654262524281979 0  0.3900433052231439 0.275196224957678 0  0.3710282683861905 0.2868793065405476 0  0.3532150571633719 0.299916433399196 0  0.3365708465074402 0.3146482152921257 0  0.3207189566668826 0.330908761787912 0  0.3058962480443093 0.3489292749749738 0  0.2922970007937643 0.3686057170924207 0  0.2801732519656158 0.390052785990962 0  0.2695716199571995 0.4131645498336164 0  0.2609176888029928 0.4378202156980988 0  0.2550050461704157 0.4638836797992603 0  0.2522155666747419 0.4910412220880283 0  0.2524090960825756 0.5183797889283992 0  0.2563293663740283 0.5453585177481768 0  0.2632505467493246 0.571869329018728 0  0.2734249534019197 0.59730552164969 0  0.2861389447330933 0.6212154881253158 0  0.3010067960435524 0.6431368791080146 0  0.3173959218702919 0.6631775692073635 0  0.3347368986694318 0.6811160621748261 0  0.3532531304744185 0.6968618937461329 0  0.3728217079867466 0.7106382408354843 0  0.3931170125764539 0.7223767680127409 0  0.4139857640264191 0.7319761125292688 0  0.4355406973604545 0.7392760193884738 0  0.4575417611422424 0.7446637691812946 0  0.4797310733696297 0.7479938417480075 0  0.5022458522365676 0.74927795282276 0  0.5252817743030402 0.7485427939758085 0  0.548826577266015 0.7454909222295688 0  0.572583571345227 0.7400239514081839 0  0.2831984333104188 0.4384120146419793 0  0.3233259836581296 0.6305991187184873 0  0.6453176045182006 0.6830111233156331 0  0.7087758439231485 0.5849642317291144 0  0.5629762592460922 0.7152526664438008 0  0.4939256014506074 0.7224786120040417 0  0.3127813501744485 0.3787213098529623 0  0.3592270322113434 0.3291651599325517 0  0.4124688179154517 0.2921618705911864 0  0.3765817562022663 0.6795339529854565 0  0.6075014450687476 0.2934991458280046 0  0.4961449482038552 0.2693666265291934 0  0.6753711952811053 0.3582301177727106 0  0.7062826824939848 0.4211527295927618 0  0.431874970570371 0.7089560956916416 0  0.7215424836848133 0.5152362622809183 0  0.2839502077435928 0.5737987689553108 0  0.2699197653912075 0.5062167262370126 0  0.4524536652810733 0.2765949674658467 0  0.7175936695457384 0.4685631188442727 0  0.6894479711842549 0.6305507608389884 0  0.5439117972868707 0.2714332347984894 0  0.6024822714587924 0.70705849277851 0  0.6465764632639921 0.3213826312739696 0  0.3760499330240737 0.3150074915721327 0  0.382024898573063 0.3438510514851321 0  0.363171682600658 0.3583437644584616 0  0.3859860147624681 0.3740940529633381 0  0.405707757106579 0.3577400867363205 0  0.4068807995693925 0.3866297068889194 0  0.390216726268225 0.4065119458093963 0  0.4321924777974734 0.3745395902661828 0  0.4225397176349291 0.4226603232733669 0  0.3930887510721743 0.4487917931782505 0  0.4612027035789291 0.4148147841584431 0  0.4729264045682456 0.364399962296129 0  0.5035041529054606 0.4107356997582789 0  0.5176524192841545 0.3628004392235444 0  0.5470407176809242 0.4054414701824944 0  0.5633567706734361 0.3587864183365961 0  0.5942458595531089 0.3971197123581232 0  0.5774356799225245 0.4406669041826545 0  0.6280393202710087 0.4328553353254669 0  0.6074466150887937 0.4732580621090093 0  0.6471571683661177 0.465321759088335 0  0.6387368877494392 0.5063780013854943 0  0.5936965760501023 0.5150866160365217 0  0.6266705177715409 0.5471584022347068 0  0.5810764073107222 0.5586967461021987 0  0.6129368255736938 0.5903817706741299 0  0.5666899418744223 0.603407060877878 0  0.594510715930374 0.630334470264692 0  0.5609016038434538 0.6487913384161251 0  0.5327635480572011 0.6229079336351121 0  0.627768548836749 0.6226582384360447 0  0.5976516679166969 0.3661783630036146 0  0.3682678047862195 0.424975575391541 0  0.3629474396039122 0.4626096979516413 0  0.3939595676326943 0.4932920890810747 0  0.3607288519666068 0.5106496327654163 0  0.3924781539941877 0.5377477832911897 0  0.3635061820222135 0.5552578009474953 0  0.3881827057365968 0.5856557160779868 0  0.3373463768886297 0.5349580823583536 0  0.421252514408048 0.5638760154444761 0  0.4167795232199268 0.6128996206634691 0  0.4583323396727184 0.5853545476705836 0  0.4449934286167649 0.6324785621687995 0  0.3347128935776695 0.4438084477312317 0  0.5349861507098934 0.3381828898636999 0  0.6544043591392341 0.53207184
[...]
<PointData  Scalars="v"> 
<DataArray  type="Float64"  Name="v"  format="ascii">6.6832280215402221e-21  1.1044775807642396e-19  2.3925203726277704e-19  2.5732859330900883e-20  -1.3338034675150661e-21  3.8067093983761988e-23  -7.2808526357190932e-22  -6.1152564721522587e-21  5.0401801326171297e-04  3.1135392172031010e-04  -3.2904209159687540e-21  1.5047084696924250e-19  3.3406328941123747e-19  9.5242538215616188e-19  -4.4953820422902129e-19  3.0046990086901194e-19  1.1555120179262114e-18  1.4479840446515031e-18  8.0955861167401230e-19  2.7060566719682640e-19  3.6269174705902527e-18  1.5920001851670329e-18  7.5208402494767879e-19  7.8580518083460622e-19  2.9157034983557960e-21  6.4919845250975281e-19  -1.3841311004541954e-19  7.3617222799704408e-20  -1.2243963522948986e-20  4.7474420397496065e-20  6.8195059984447522e-20  -2.0392894756651249e-19  5.6677225196983249e-19  4.9260565356084893e-19  1.6128880743696363e-20  2.3299927562309831e-18  9.6405000491973805e-19  4.2091010577399760e-19  5.1511379350668251e-19  3.6304685547648295e-19  5.2612080500969607e-19  -7.0961870672235403e-19  -5.6878042058672291e-20  -9.1888668764740339e-19  2.0133166511656550e-19  2.8698268323246985e-19  -1.6946107545667727e-19  -3.1686331628642264e-19  -3.3829373462670948e-19  4.3223616533778839e-19  1.6388516957833457e-18  -1.7563119273487382e-18  -6.0659143433248441e-19  6.2734925922024329e-19  -1.0612045418133787e-19  -1.0315626034554780e-17  -2.8231743227557407e-18  3.7952845295810190e-18  -4.5372071230702827e-18  4.2965636066112447e-19  -1.3311322703285728e-20  1.1234262422021524e-19  -2.9123463846373648e-18  1.3284064635553795e-18  1.8213745225743825e-18  -1.2332324008007666e-18  -8.2390673960264675e-20  8.4855561577005099e-19  1.1456250682422164e-19  2.9207691734372181e-19  -6.0007889799994458e-19  -3.2132471691188114e-19  4.7985393343644977e-18  2.1162105576516819e-19  5.2408857338170455e-18  -5.1321809965565832e-18  -2.1904006276557374e-18  4.5766678382385462e-18  -1.4253122017647907e-18  -8.1456767587505235e-20  -3.9629069702279414e-18  5.9039736303888919e-19  2.9070961794562088e-19  2.1928027871951809e-18  2.7445489461635986e-19  2.4171369720088255e-19  2.4957367073130345e-21  1.1859937874617087e-20  5.0767623296407607e-22  2.2430001257509752e-21  9.0749207531190586e-20  6.2868692960842942e-20  -2.9238320869022029e-20  -2.9584254096826525e-20  1.6585985251469321e-19  2.3480989268557003e-19  8.6198262652147033e-20  1.1175083989725339e-19  3.9809509756976014e-19  2.8981903347445543e-19  1.0879303043641098e-19  1.6607810777093217e-19  4.8047578921408236e-20  3.5844084514964933e-20  -1.2696706831860144e-20  2.4246454418026889e-21  -1.2480849786182930e-21  2.5455375072679252e-22  3.5928351702464386e-22  -1.6670444544238630e-21  7.3323982038812824e-21  1.2125677743004095e-20  -8.9722719889859898e-21  1.1444019471684745e-20  1.7479619272710546e-20  -4.1186485877443533e-21  5.0227678090884755e-20  2.2817139415669734e-19  1.9287162557380322e-19  5.9438617024485638e-20  5.8686445496744180e-20  5.7864916227684125e-20  4.1608241461820815e-20  -3.4402251595412171e-20  -6.2758071072631914e-20  -6.7510968054675786e-20  1.4753520218162835e-21  5.3054051390988557e-20  -2.8900608452115213e-20  -3.3294549043757842e-20  -5.1954482730642279e-21  5.4064987399314903e-21  -3.3588142982501093e-21  7.5699950235903877e-21  3.7505485898290811e-20  3.3161758150290106e-20  1.7272508726421205e-20  -2.1995054860970072e-21  -4.1962691524715293e-20  -2.3801677262974924e-20  1.4020361246174494e-20  3.3794360849686930e-20  -1.4558855006290523e-20  -4.5341550090831478e-20  -2.0819355052443037e-20  -1.4063650776121029e-20  -3.1176198773083636e-21  5.3655190653068475e-21  1.0801660021303234e-22  -3.8904670045916722e-20  -1.0705840294842583e-20  -4.5636884975997155e-22  -8.7548444246660481e-21  1.1665793831326900e-21  2.1925449490791677e-21  -2.5210787833630793e-21  8.9789251154370603e-21  2.1018551212967947e-20  2.6401107359244151e-20  3.1049167196778686e-20  -2.4458388927997399e-21  4.6023480037461805e-20  7.8704460619212598e-20  8.1660966460496206e-20  6.3074163050464618e-20  -7.5891208086076314e-21  -6.5573468096836952e-20  -1.9691147266770462e-21  7.8333110918782822e-22  -2.2622330448187590e-20  1.2530883027060703e-21  -2.1552602762527288e-20  1.0479791334647902e-20  3.6729668273720976e-20  3.5133655469495618e-20  -1.0154252957268118e-20  2.2475978993230727e-21  6.7172940223178292e-21  3.1170051892165981e-04  3.1466171765108378e-04  3.1934599292412623e-04  3.2613916217196127e-04  3.3501609814722011e-04  3.4557427789574561e-04  3.5544925899275913e-04  3.6506312633827101e-04  3.7240885526839600e-04  3.7781387360373596e-04  3.8180694575253873e-04  3.8189706849148318e-04  3.7887771991226772e-04  3.7371230740153912e-04  3.6554625442762059e-04  3.5512887235518973e-04  3.4205461577185056e-04  3.2745750202407310e-04  3.0981258083106014e-04  2.9469778429318944e-04  2.8067587907748776e-04  2.6855167404392030e-04  2.5925815182390556e-04  2.5289132774189616e-04  2.5125917396320966e-04  2.5310946083974837e-04  2.5739655779353707e-04  2.6241354427080624e-04  2.6822674547029426e-04  2.7585808647718677e-04  2.8501045316245953e-04  2.9631759951844003e-04  3.0730881213882945e-04  3.1949013651769420e-04  3.2771007718982728e-04  3.3676400194514102e-04  3.4290538412516842e-04  3.4794621122179409e-04  3.5094893358303782e-04  3.5213085346462013e-04  3.5330452411959650e-04  3.5607967402847396e-04  3.5885778515459783e-04  3.6524540015549570e-04  3.7180110944534683e-04  3.7825614912942896e-04  3.8387431556033126e-04  3.8766376718023102e-04  3.8753369177107772e-04  3.8421214995514676e-04  3.7889936697365430e-04  3.7206157560217489e-04  3.6342279910170355e-04  3.5473150038817713e-04  3.4661253662393110e-04  3.3887046875112734e-04  3.3157499332881813e-04  3.2484831143917401e-04  3.1902173470474909e-04  3.1518391669251657e-04  3.1274463977191215e-04  3.8885581257873435e-04  4.2418805080446300e-04  3.4334887223269606e-04  3.9467924126425206e-04  3.6112418609718670e-04  3.7579598759053355e-04  3.7639917190742587e-04  3.5361039197760844e-04  3.2177725944614190e-04  4.1769297651593436e-04  3.0408915334125274e-04  2.8725312303977282e-04  3.6649089854944050e-04  4.0144854902068503e-04  3.9789292555813958e-04  4.1147685424762514e-04  4.0822249937392353e-04  3.9068176881147063e-04  3.0421295507951368e-04  4.1301115373634551e-04  3.6725386117827599e-04  2.8232546720005077e-04  3.5213645696694835e-04  3.3565639305532639e-04  3.4273499712376152e-04  3.7596154878580528e-04  3.8505242811220106e-04  4.0838484345577720e-04  3.9615845439336080e-04  4.2525863438743492e-04  4.3606966398291669e-04  4.1516198181825771e-04  4.5660858455391667e-04  4.6558458147378850e-04  4.5447093748245013e-04  4.0644183659943335e-04  4.5261431740229016e-04  4.0416449603948156e-04  4.4729758815722722e-04  3.9523033958369943e-04  4.3155620798443760e-04  4.6982196192014194e-04  4.5116749175570705e-04  4.7887851926122713e-04  4.6189615750370365e-04  4.7231791451214812e-04  4.8821069784106601e-04  4.6936850745458411e-04  4.8197866053702117e-04  4.5272366169234191e-04  4.6448062445883373e-04  4.3229411449228995e-04  4.3097432729995638e-04  4.6173407660364036e-04  4.2194621339561945e-04  4.0052975105991706e-04  4.4281289136396962e-04  4.6000924549883420e-04  4.8410198136389614e-04  4.7336909677374436e-04  4.9022116758065269e-04  4.7667217584250769e-04  4.8176830276581523e-04  4.6113125019709339e-04  4.9560735379485183e-04  4.7730856135907052e-04  4.9305865236028081e-04  4.6844254990502192e-04  4.3589222401153285e-04  3.7562874639714155e-04  4.6139255856081471e-04  4.5574284410895345e-04  4.4393640209582709e-04  4.5127559186000903e-04  4.0625512584211798e-04  4.5131397159165962e-04  4.3738187965878188e-04  4.0172564820709295e-04  4.0349859959568578e-04  3.9504639026923227e-04  4.0883122412531430e-04  3.8223263464003555e-04  4.4122205204372259e-04  4.4111484276377038e-04  4.3705823403855697e-04  4.2575301778942256e-04  4.1749358373741101e-04  4.5865004133277510e-04  4.8512928811808017e-04  4.3135433633868325e-04  3.6456327741031150e-04  3.5696434610732176e-04  3.3503517441134558e-04  4.3711387957641326e-04  4.4070399196592663e-04  4.2345677318912883e-04  4.1212280602104847e-04  3.8999026554129468e-04  4.3471109413479952e-04  4.8627321882640704e-04  4.1699651804199644e-04  4.3493194360720214e-04  4.6497086369252434e-04  3.7907236983523242e-04  3.3888146182865488e-04  4.0821362428090598e-04  4.6658784996589955e-04  4.5004566672464049e-04  4.4753144378189966e-04  4.4278941142954491e-04  4.2372839751364191e-04  4.0514555376773911e-04  3.6525330818157125e-04  3.4418956588205173e-04  4.5607170112761799e-04  4.4355481341087037e-04  4.1623676941480677e-04  3.8982872938747468e-04  4.5375611835179498e-04  4.0846481474209224e-04  4.1562508295219441e-04  3.9911427784277163e-04  3.6425256393013633e-04  5.0313114092507953e-04  4.8207327995855207e-04  3.7856723887662677e-04  3.7027186824716804e-04  3.9166653737972268e-04  4.9796432722084454e-04  4.0731952517565693e-04  4.3261224995045175e-04  4.1693531826442995e-04  3.7966592569160161e-04  3.6114357377760894e-04  3.3227280778834803e-04  4.0866374191642047e-04  4.1994205286256841e-04  4.1874530582484189e-04  4.5210543026699273e-04  3.7746465022009179e-04  3.7350385340774602e-04  3.1236690419342479e-04  3.4396621478272028e-04  2.9657923801405383e-04  4.0164558136732788e-04  3.6021259294180899e-04  3.9516446293513737e-04  4.1890542835937728e-04  3.8275213423296002e-04  4.1584855269988246e-04  3.8616134366659208e-04  4.1403770092973262e-04  4.3457432176863156e-04  4.0204868005789494e-04  3.8501423531719714e-04  3.9338285329442070e-04  4.8481913847500836e-04  4.1238753497575565e-04  4.8688068954061252e-04  3.4156358899756445e-04  2.8313166267650503e-04  3.1479024264628047e-04  3.9360152907938440e-04  3.1346957962967621e-04  3.5137117402833884e-04  3.6228575955263130e-04  2.7366712729522596e-04  4.3958509148024757e-04  3.9339433396895864e-04  3.9051068108874232e-04  4.9352271319955349e-04  4.9833692611689633e-04  4.0410668601446929e-04  4.0574537350255657e-04  3.1802050102348569e-04  2.8193188573542849e-04  3.2462743882892510e-04  4.2394844806152668e-04  3.6817283361118144e-04  4.2204132538008020e-04  3.4831162675890483e-04  3.7631630200986120e-04  3.9972232856460747e-04  4.0767390334332776e-04  3.5285453815818066e-04  4.0780817962616551e-04  3.3754769022544841e-04  3.1407412473148118e-04  3.7759876115062114e-04  3.8258896632297444e-04  3.9209881032251423e-04  4.4781884321102813e-04  3.8299681859252940e-04  3.6008456772929380e-04  3.4882791572755424e-04  3.4786288545681036e-04  3.9783790828731819e-04  4.9852921918084800e-04  3.3051913120099862e-04  4.3954245013730901e-04  3.9751446171289493e-04  4.6308493310159377e-04  4.2530422477739390e-04  4.3014415844524936e-04  4.2022941229971086e-04  3.7666724512570008e-04  4.2565355174713622e-04  4.6876646220104140e-04  3.3500507509729458e-04  4.3140031673020383e-04  4.2730777394283021e-04  3.1574582713813617e-04  3.4174900253146410e-04  3.6422435827291802e-04  4.7632664911660959e-04  4.1882787307383841e-04  4.3470585365934153e-04  3.4657575677554865e-04  4.5270340705049129e-04  4.4576807974012296e-04  4.1756392213727417e-04  5.0232451046963549e-04  4.3189391413384044e-04  4.5814278222134974e-04  4.3393744660729321e-04  3.7396700110729926e-04  4.3312114690139916e-04  4.3512619022974676e-04  4.7958441978200703e-04  4.0441188559680891e-04  3.1913662714009119e-04  3.4045711392141040e-04  4.5048756078265920e-04  3.6782477734511394e-04  3.7432705180855222e-04  4.3656869434811533e-04  3.7516884154819609e-04  3.6754019897731680e-04  3.4959399897132703e-04  4.2754107720556061e-04  4.2512629677278257e-04  4.3243522666155812e-04  4.1907945717129858e-04  3.7179465470810533e-04  4.5523374621441424e-04  3.7488119935248914e-04  2.9965388384209482e-04  2.7085376056752188e-04  3.5779344426951557e-04  3.0379266798348975e-04  2.8552212701458019e-04  3.3956472120056633e-04  3.1881203498282330e-04  2.9464948305689810e-04  3.2222335578319621e-04  3.1868140397054351e-04  3.1738612902035100e-04  3.5296907707051632e-04  3.4106690278311238e-04  2.5919988481098272e-04  2.9453535384025865e-04  2.6695919961229192e-05  2.4483954670920878e-04  3.4905129955736804e-05  4.3326165370190142e-05  3.4419445629561732e-04  5.1634365567384260e-05  3.3878762298895188e-04  4.2232231741886001e-05  3.7489464299694252e-05  4.3534624099337897e-05  2.3938549550164549e-04  2.3578911289876518e-04  3.9477947807151626e-05  3.2689582847107213e-04  3.4646975924511574e-04  3.6308357291185514e-05  3.3130588569709878e-04  3.7543435529654140e-05  5.0209869365575602e-05  3.0005590811072477e-04  6.3203026886241590e-05  6.2984432194735152e-05  8.6834470349217977e-05  6.5569768429059948e-05  4.6032046530575863e-05  4.6421956429473179e-05  6.1605358827369975e-05  4.5755442006182216e-05  9.6441195014600450e-05  2.6910494806400973e-05  2.6473102545770475e-05  2.0968300218728366e-05  2.5417241375738635e-05  9.3667097968678332e-05  3.0983764866004772e-05  2.6416169043068561e-05  2.9773913208469603e-05  2.1926539384920842e-05  3.3167768312194020e-04  3.1821228950270361e-04  3.0807553841019327e-04  2.8824573709461344e-04  2.9710901173278601e-04  2.7529661586294350e-04  2.6002343017919626e-04  2.6958179760423967e-04  2.2593275349410774e-04  2.3484465021701202e-04  2.7659890894746219e-04  2.3857382446157072e-04  2.8235891739999860e-04  2.3861176639237413e-04  2.7146068483897189e-04  2.3141519993915907e-04  2.5876870360294315e-04  2.1881357653267356e-04  2.4125516425830851e-04  2.0019777994191069e-04  2.1872382787964579e-04  1.7736991628087277e-04  2.5734664905212524e-04  2.3267280954996066e-04  1.9051758705914779e-04  2.0057275368027966e-04  2.4274115762871665e-04  2.0762202728211366e-04  1.5663996116015792e-04  2.4722689460527990e-04  2.1183970223188887e-04  1.5798920831987774e-04  1.9458445459036923e-04  1.3535695933700114e-04  2.5536161313842779e-04  2.1464633846035003e-04  2.5098640793832415e-04  2.1445908521204598e-04  1.7458187004376868e-04  1.7541772406937185e-04  2.1479488300445507e-04  1.7645468794886702e-04  2.2076009185254813e-04  1.7812880776792164e-04  2.1496156480606024e-04  1.7767209848578065e-04  2.1855578547440546e-04  1.7701977310273601e-04  2.1430323931153716e-04  1.7367780267961793e-04  2.0387104181155766e-04  1.6680773887843756e-04  1.9516898898935166e-04  1.5701592841401620e-04  1.8215531739728571e-04  1.4524601880490530e-04  1.6495927394242344e-04  2.0248939145718593e-04  1.8024257409699631e-04  2.1735854450965954e-04  1.9046653122197272e-04  2.2741225541169624e-04  1.9451272843411862e-04  2.3172130199722540e-04  1.4565391724888848e-04  1.9330320433327602e-04  2.3767902736412182e-04  1.2694881810009932e-04  1.5628755768942179e-04  2.3547727174249000e-04  1.3189681733338877e-04  2.3794413862555450e-04  2.3792316512897648e-04  1.7110956021635835e-04  1.1349714170734421e-04  2.9344552451159717e-04  1.3618095530917466e-04  2.8332386574159222e-04  1.9027106872804408e-04  2.2499005400466904e-04  2.6790485006221464e-04  2.6456892783858571e-04  2.1115958333035604e-04  2.4521082818747470e-04  9.4557449981754098e-05  2.4826359313923318e-04  2.5976560807092967e-04  1.1418515223330503e-04  1.9134777026894701e-04  2.2495174161911129e-04  2.7441992624978556e-04  2.6178917440844370e-04  2.0380042808403132e-04  2.3346302665309886e-04  1.7816184543388488e-04  2.0687360664598203e-04  2.5620615240039036e-04  2.2900893027743335e-04  2.7224434866954212e-04  2.4484812922073110e-04  2.0154183376679908e-04  2.1567034807833905e-04  1.7227309500726244e-04  1.8525644389738631e-04  2.2317140208160763e-04  1.9118154837083481e-04  2.2405504735392026e-04  1.9082258639057929e-04  1.5945761382074540e-04  1.5673590343971531e-04  1.8328559451572795e-04  1.4790367810164925e-04  1.7002612228768363e-04  1.2257208198871602e-04  2.0572269933636159e-04  1.8913458424335395e-04  1.5230068612782127e-04  1.6863783874156491e-04  1.3149221636793239e-04  1.4738204336221052e-04  1.8277713539057445e-04  1.5849219328248633e-04  2.5567949461384844e-04  2.5234436992242125e-04  1.4269990938241525e-04  2.2300611513828875e-04  2.8231763798411695e-04  1.9322060293714343e-04  1.7454763367232571e-04  1.3246159933925735e-04  1.4332165701775386e-04  1.8293799377391276e-04  1.5332695934145449e-04  1.8523000249940545e-04  1.6106575198335138e-04  1.9227891448413159e-04  1.6958020087572698e-04  1.3451797548186945e-04  1.4361424488297723e-04  1.8751227711018322e-04  1.5440716544178008e-04  1.8755790602286370e-04  1.6085497655755093e-04  1.9237967605747905e-04  1.6761045991843499e-04  1.9726343656761025e-04  1.7119499065907284e-04  2.0096159988965015e-04  1.7100152446550469e-04  1.9888725837864359e-04  1.6603953945282794e-04  1.9223649713134654e-04  1.5619071265768813e-04  1.7780296264694053e-04  1.3255957962785800e-04  2.1677532099585763e-04  1.9871125253954146e-04  1.3974069261603041e-04  2.3202651338454696e-04  1.5665298602846113e-04  1.7345410022524550e-04  2.1806961443507922e-04  1.2044127824870197e-04  9.9931044959412105e-05  1.8935617569822854e-04  2.3570854705613829e-04  2.0333909581028576e-04  1.0703859284013239e-04  1.2778534164167499e-04  2.1718607169436170e-04  2.5582222606638757e-04  2.1487804447478442e-04  2.6191665902751648e-04  2.2457837808990348e-04  2.7902189851726603e-04  1.2087965790731751e-04  1.0219689854966613e-04  8.4750849764405895e-05  1.0789229102003797e-04  1.1295969439146813e-04  8.9481281688278883e-05  9.5481800587263478e-05  2.7976289039705938e-04  1.2372254596099014e-04  1.3771821082356279e-04  1.9639887935662026e-04  7.5771373287116024e-05  2.1197329738697630e-04  1.1604883204906690e-04  1.4678834973161221e-04  1.1133361910366219e-04  1.2114370105771043e-04  1.5198601674171563e-04  1.1561508330918175e-04  8.9876949604486561e-05  2.9343267182030679e-04  2.1376718823285160e-04  2.7260170195231651e-04  1.3126271144952092e-04  3.0522852792328235e-04  2.1030875301260646e-04  2.1785485031677946e-04  8.4720982292901549e-05  2.8454551990190569e-04  1.4509911963930041e-04  1.1917206386375188e-04  3.1026278554533045e-04  2.5599895163357658e-04  2.7544197137115259e-04  1.7029545272382094e-04  3.0139614292851706e-04  3.1205357294906321e-04  6.6247299461229839e-05  3.2370417657830234e-04  2.9775605680757729e-04  3.0059115022681532e-04  2.8838384286940455e-04  1.0755620205524275e-04  3.1319295195340570e-04  2.1980213524303252e-04  3.2112748605059950e-04  2.9484104596021562e-04  7.3797471618935323e-05  7.6018211694198686e-05  3.0998556688347986e-04  2.9362805793403429e-04  2.8671161445246161e-04  3.0115497558640239e-04  3.0940169040176956e-04  9.6958032325670815e-05  1.1439744897185767e-04  2.1094650878647519e-04  2.0515614003087319e-04  2.2400382518798678e-04  2.9003799946020258e-04  3.0761851643218029e-04  8.0194839277479584e-05  1.0927300013072953e-04  7.7347829653987048e-05  3.2909935366005899e-04  2.3480218949195698e-04  2.3329118223537948e-04  1.5526243970776768e-04  2.9525722800528029e-04  2.7666676356937191e-04  4.8733804158039497e-05  5.9233388175123582e-05  2.7395238813487009e-05  2.2946443831157467e-04  3.4594945185517406e-04  1.6257982102799601e-04  2.9768088953316835e-04  3.1108459487812668e-04  2.3703512630097960e-04  2.4891724297319590e-04  3.3805262461622591e-04  2.7193605269389381e-04  2.9196549570287516e-04  2.8011848923813507e-04  2.7694576456050661e-04  2.6031681386918056e-04  2.6609593402845228e-04  2.8846458511286337e-04  2.7269468450149252e-04  6.4915883371974119e-05  9.3583488206078295e-05  2.2250066386109857e-04  3.2333987519673200e-04  3.0519744644227432e-04  3.0017658049142346e-04  3.0971921039780830e-04  8.6890966600308884e-05  2.5163666124151121e-04  3.3086054242894794e-04  3.2102601275036302e-04  3.2795284757823606e-04  3.0421341320342878e-04  3.1138943875135726e-04  3.3261231489787962e-04  3.1242282878074637e-04  3.3250444975201819e-04  3.1066568024711044e-04  3.3113523674903014e-04  2.2443478421509569e-04  3.2110485635508830e-04  8.2333786010093776e-05  9.4183105539992560e-05  2.3517014486328094e-04  2.2530385624454011e-04  2.332164