<?xml version="1.0"?>
<VTKFile type="UnstructuredGrid"  version="0.1"  >
<UnstructuredGrid>
<Piece  NumberOfPoints="1297" NumberOfCells="2496">
<Points>
<DataArray  type="Float64"  NumberOfComponents="3"  format="ascii">0 0 0  0 1 0  1 1 0  1 0 0  1.1 -0.1 0  -0.1 -0.1 0  1.1 1.1 0  -0.1 1.1 0  0.2535697663429276 0.686673027008794 0  0.2515911136307915 0.3133433893024228 0  0.7486722593610891 0.3126927125554017 0  0.7495283399364849 0.684907138888001 0  0.5007050916521195 0.4994711796570785 0  0 0.9499999999997918 0  0 0.8999999999995836 0  0 0.8499999999996529 0  0 0.7999999999999998 0  0 0.7500000000003466 0  0 0.7000000000006934 0  0 0.6500000000010401 0  0 0.6000000000013869 0  0 0.5500000000017335 0  0 0.5000000000020587 0  0 0.4500000000018723 0  0 0.4000000000016644 0  0 0.3500000000014564 0  0 0.3000000000012483 0  0 0.2500000000010403 0  0 0.2000000000008322 0  0 0.1500000000006241 0  0 0.100000000000416 0  0 0.05000000000020799 0  0.04999999999989965 0 0  0.09999999999981467 0 0  0.1499999999997036 0 0  0.1999999999995579 0 0  0.2499999999994121 0 0  0.2999999999992664 0 0  0.3499999999991206 0 0  0.3999999999989749 0 0  0.4499999999988292 0 0  0.4999999999986943 0 0  0.5499999999988151 0 0  0.5999999999989468 0 0  0.6499999999990784 0 0  0.69999999999921 0 0  0.7499999999993417 0 0  0.7999999999994734 0 0  0.8499999999996051 0 0  0.8999999999997368 0 0  0.9499999999998684 0 0  1 0.04999999999989965 0  1 0.09999999999981467 0  1 0.1499999999997036 0  1 0.1999999999995579 0  1 0.2499999999994121 0  1 0.2999999999992664 0  1 0.3499999999991206 0  1 0.3999999999989749 0  1 0.4499999999988292 0  1 0.4999999999986943 0  1 0.5499999999988151 0  1 0.5999999999989468 0  1 0.6499999999990784 0  1 0.69999999999921 0  1 0.7499999999993417 0  1 0.7999999999994734 0  1 0.8499999999996051 0  1 0.8999999999997368 0  1 0.9499999999998684 0  0.9499999999997918 1 0  0.8999999999995836 1 0  0.8499999999996529 1 0  0.7999999999999998 1 0  0.7500000000003466 1 0  0.7000000000006934 1 0  0.6500000000010401 1 0  0.6000000000013869 1 0  0.5500000000017335 1 0  0.5000000000020587 1 0  0.4500000000018723 1 0  0.4000000000016644 1 0  0.3500000000014564 1 0  0.3000000000012483 1 0  0.2500000000010403 1 0  0.2000000000008322 1 0  0.1500000000006241 1 0  0.100000000000416 1 0  0.05000000000020799 1 0  -0.1 1.05000000000004 0  -0.1 1.000000000000079 0  -0.1 0.9500000000001624 0  -0.1 0.9000000000003032 0  -0.1 0.850000000000444 0  -0.1 0.8000000000005848 0  -0.1 0.7500000000007256 0  -0.1 0.7000000000008665 0  -0.1 0.6500000000010508 0  -0.1 0.6000000000012352 0  -0.1 0.5500000000014196 0  -0.1 0.500000000001539 0  -0.1 0.4500000000014195 0  -0.1 0.4000000000013 0  -0.1 0.3500000000011588 0  -0.1 0.3000000000010178 0  -0.1 0.2500000000008986 0  -0.1 0.2000000000007579 0  -0.1 0.1500000000006174 0  -0.1 0.1000000000005272 0  -0.1 0.05000000000040083 0  -0.1 2.671196597248127e-13 0  -0.1 -0.0499999999998666 0  -0.0500000000000906 -0.1 0  -1.730560139634463e-13 -0.1 0  0.04999999999975802 -0.1 0  0.09999999999961506 -0.1 0  0.1499999999994613 -0.1 0  0.199999999999302 -0.1 0  0.2499999999991446 -0.1 0  0.2999999999990088 -0.1 0  0.3499999999988296 -0.1 0  0.3999999999986936 -0.1 0  0.4499999999985143 -0.1 0  0.4999999999984002 -0.1 0  0.5499999999985247 -0.1 0  0.5999999999986493 -0.1 0  0.6499999999987955 -0.1 0  0.6999999999989417 -0.1 0  0.7499999999990659 -0.1 0  0.7999999999992116 -0.1 0  0.8499999999993573 -0.1 0  0.8999999999994526 -0.1 0  0.949999999999584 -0.1 0  0.9999999999997226 -0.1 0  1.049999999999861 -0.1 0  1.1 -0.0500000000000906 0  1.1 -1.730560139634463e-13 0  1.1 0.04999999999975802 0  1.1 0.09999999999961506 0  1.1 0.1499999999994613 0  1.1 0.199999999999302 0  1.1 0.2499999999991446 0  1.1 0.2999999999990088 0  1.1 0.3499999999988296 0  1.1 0.3999999999986936 0  1.1 0.4499999999985143 0  1.1 0.4999999999984002 0  1.1 0.5499999999985247 0  1.1 0.5999999999986493 0  1.1 0.6499999999987955 0  1.1 0.6999999999989417 0  1.1 0.7499999999990659 0  1.1 0.7999999999992116 0  1.1 0.8499999999993573 0  1.1 0.8999999999994526 0  1.1 0.949999999999584 0  1.1 0.9999999999997226 0  1.1 1.049999999999861 0  1.05000000000004 1.1 0  1.000000000000079 1.1 0  0.9500000000001624 1.1 0  0.9000000000003032 1.1 0  0.850000000000444 1.1 0  0.8000000000005848 1.1 0  0.7500000000007256 1.1 0  0.7000000000008665 1.1 0  0.6500000000010508 1.1 0  0.6000000000012352 1.1 0  0.5500000000014196 1.1 0  0.500000000001539 1.1 0  0.4500000000014195 1.1 0  0.4000000000013 1.1 0  0.3500000000011588 1.1 0  0.3000000000010178 1.1 0  0.2500000000008986 1.1 0  0.2000000000007579 1.1 0  0.1500000000006174 1.1 0  0.1000000000005272 1.1 0  0.05000000000040083 1.1 0  2.671196597248127e-13 1.1 0  -0.0499999999998666 1.1 0  0.2419409321541874 0.6664788284247376 0  0.2338930772723665 0.6426324554452258 0  0.2269682068383752 0.6181243887051801 0  0.2213774558262635 0.5937667806634275 0  0.2169661387426974 0.5699816874465962 0  0.2133933280474512 0.5466723708254038 0  0.2109313589049828 0.5234786412175698 0  0.2104669222679115 0.5003543402219008 0  0.2108819151288706 0.4772498507226169 0  0.2129370487261991 0.4538610501339704 0  0.2161479230854476 0.4303859035170586 0  0.2204235608640578 0.4067159218308362 0  0.2255536062877034 0.3825314583008283 0  0.2321336561600149 0.3578499091923778 0  0.2399668013916924 0.3338345829062664 0  0.2732291100533783 0.3039112198846986 0  0.2980972881001315 0.2973580669946272 0  0.3239257586216939 0.2916373348737424 0  0.349847051335504 0.2865682075733927 0  0.3754963352574496 0.2822471337069043 0  0.4007621370407863 0.2784047715780756 0  0.4257470651586344 0.2752141042377472 0  0.4506309454713483 0.2726195550574799 0  0.4755177163862814 0.2712092364282307 0  0.5002905822303448 0.2707221607211616 0  0.5250576781113189 0.2712880551841751 0  0.5498702538737835 0.2728023250908566 0  0.5748366439661521 0.2750613370820913 0  0.599882144935431 0.2783395250349971 0  0.6253269908326771 0.2820195260086099 0  0.6510502404836714 0.2862949341187931 0  0.6768532971218779 0.2912269062864247 0  0.702474521179451 0.2968197511478681 0  0.7271400979213863 0.3031885920897627 0  0.7598881955661612 0.3330812802928966 0  0.7682075250616195 0.3566418167755985 0  0.7751010070328648 0.3811598183094481 0  0.7805466697765235 0.4054203227144546 0  0.7849708999882355 0.4291706995634612 0  0.7881857867199475 0.4526254561963328 0  0.7900304425746772 0.4757812910349892 0  0.7904188440154833 0.498630468914751 0  0.7895188366470739 0.5214303863878097 0  0.7875110283469287 0.5443227417472094 0  0.7845674799486188 0.5676506684072843 0  0.780441116097252 0.5913009360365218 0  0.7754930194092848 0.615873086831482 0  0.768863694859811 0.6405566305494735 0  0.7608584302480264 0.6644142888173395 0  0.7279551565455288 0.6945365286787745 0  0.7032282147538036 0.7008643515084056 0  0.6778094435949362 0.7067317030538663 0  0.6520228474835865 0.7120589795642286 0  0.6263130115416053 0.7167248588580512 0  0.6007794584962146 0.7206676188354688 0  0.5757285786216406 0.724069760933878 0  0.5508359228532416 0.7264111666656707 0  0.5261200810830272 0.7278847811235987 0  0.5015025600564021 0.728367936193842 0  0.4768512640472489 0.7279394566407147 0  0.4521110960263672 0.7264269608562569 0  0.4273452812899115 0.7239484342601553 0  0.4022941312175482 0.7208889747407691 0  0.3768734846755224 0.7172026452882119 0  0.3512720477316935 0.7128672763027998 0  0.3254378010226263 0.7079317771389823 0  0.2997329203384616 0.7023186375794763 0  0.2750568082619447 0.6959105812722055 0  0.360672019020447 0.3092939634512797 0  0.2420100197180454 0.4409829474507184 0  0.3620380506807986 0.690162108035666 0  0.2426543064193032 0.5593329801960246 0  0.7575159118122209 0.5807414809926187 0  0.614996929104918 0.6946174913905001 0  0.6389592947648252 0.3083646232527645 0  0.7608751375043845 0.4390381800356097 0  0.762824094312838 0.5096795247095832 0  0.5624773528367061 0.2977766149378167 0  0.4383658947922365 0.2999776816302417 0  0.4382713075339419 0.6995425875137337 0  0.53895515418927 0.7018538024659287 0  0.2386495362736235 0.4883774565471466 0  0.2473673150981809 0.3927536299917871 0  0.4879246756889503 0.2996437146949654 0  0.255307215872863 0.6059526563118842 0  0.7462505402787739 0.3893402097376652 0  0.4889280211811933 0.7027252740760985 0  0.6669437355253527 0.6853181592013406 0  0.3077378362555658 0.3209065804662148 0  0.6933184779719638 0.3218789833719003 0  0.3102567337399835 0.6812761050271851 0  0.7451939807244048 0.631599261725649 0  0.2605777474742172 0.3442087321275665 0  0.2649819331648168 0.6544480295870501 0  0.7184996191899273 0.6745343932819817 0  0.7404982068743102 0.3428521270719195 0  0.3361180088079444 0.6859652639320316 0  0.3471026782999116 0.664227468870292 0  0.3730257574300344 0.6674167525174587 0  0.3575568068963565 0.6416795841515501 0  0.3847419691407057 0.644230633230044 0  0.3680812555434377 0.6161113097156452 0  0.4007254351259433 0.6183653101751463 0  0.3809683718031736 0.5852006682192915 0  0.3355342331272304 0.6127853377628666 0  0.4207750614808751 0.5864709007078734 0  0.3968399181508926 0.5490179384837902 0  0.3497275903683514 0.5539111864924126 0  0.3692725496678001 0.5142421112076085 0  0.3240960345693638 0.5163055282444551 0  0.3397318442410125 0.4813521667351519 0  0.3870237965111396 0.4755564121063434 0  0.3623092632203709 0.4424454991997309 0  0.404968494670728 0.4361378903757949 0  0.3818931367732842 0.404649665144605 0  0.420674250040145 0.3914713353806829 0  0.3413822828337056 0.4074460418429152 0  0.3933194711966067 0.3701679152769683 0  0.4321591604477498 0.6215127132557643 0  0.461108468335084 0.5952672656551792 0  0.4825441329972655 0.6228474568179091 0  0.503501592375889 0.5971137494542543 0  0.523646518949538 0.6229604044234575 0  0.5448637537062544 0.5972314426550476 0  0.5643533012123667 0.6229830440161602 0  0.5858621218902739 0.597428562243481 0  0.605711565773583 0.6254044489385782 0  0.6269606803642137 0.5902645024934815 0  0.60875243601894
[...]
<PointData  Scalars="u"> 
<DataArray  type="Float64"  Name="u"  format="ascii">-1.5935711048163996e-18  -4.3204991898478193e-18  -2.4746826024671137e-18  -4.4780441228797272e-19  9.7888813189677303e-22  5.7787230487184494e-20  1.3617912275178427e-19  2.3538633505762560e-19  -8.2641434744160858e-02  -8.2184979760231300e-02  -8.1526412456238748e-02  -8.1921241845551884e-02  1.3201665599859808e-01  -6.3517479049285509e-18  -8.8716907429798419e-18  -1.2861716360989898e-17  -2.5021581926917016e-17  8.3806672558837992e-19  -2.6135943483024680e-17  -1.4528145120525685e-17  -2.0855624277286299e-17  7.5224025513718860e-18  -2.7882455298275579e-17  -3.6642943014568455e-17  2.1139119003059520e-17  -8.0343104484741317e-18  -2.1989270710597614e-17  1.0636270198904564e-17  -2.3841692856015114e-17  7.3214303207958979e-18  2.7580194804017026e-18  -4.4441825590912322e-18  3.0208098702630799e-18  2.0971894852824925e-18  -4.7531585373024362e-18  -2.3199570081061535e-17  0.0000000000000000e+00  7.6261639385429717e-19  -2.9852112739198597e-17  -1.9480080277447914e-17  9.9048790122114634e-18  -1.5873318534768679e-17  -8.1847108459524399e-19  3.2094882042785122e-17  -1.4530298172772098e-17  2.5239147442779449e-18  -2.2091872011156860e-17  -3.3216034856317546e-17  -1.3026445711508323e-17  1.9643741891671227e-17  1.9683422485210827e-17  -2.1037886866172813e-17  -3.5544035982508706e-17  -2.4294603292050991e-17  -1.1324468983325163e-17  -1.9188701361173218e-17  -5.7994655375730485e-19  5.0870026190843055e-18  -7.0707538140425355e-18  -8.4624512406577843e-18  -2.5238090741442864e-18  -1.6343423247922239e-17  -1.7026432067124233e-17  -3.5257756352609687e-18  -1.4471157873695409e-17  -1.8695264036607157e-17  -5.2368621913215998e-18  3.5869734013261434e-19  -2.6182019324238617e-17  -2.4691209287409194e-18  3.1317534706555539e-18  -1.9699353669310466e-19  -1.8316118121849386e-17  -5.9132734875373071e-18  -3.3678256635642609e-17  -2.1145772695482958e-17  -2.0092881168121038e-17  -1.5295661534713350e-17  -3.9909116224627907e-17  -4.3037012670574833e-17  2.8077347667538391e-18  2.0644074330590331e-17  6.1202881637083957e-18  -1.9258399554565742e-17  1.8925948571713339e-18  0.0000000000000000e+00  1.3942065575750023e-17  5.1043067825011610e-18  1.2371862619769183e-17  -6.4029726729707828e-20  -3.8817562628285894e-19  -1.3271282476214705e-18  -1.9326363041918692e-18  -2.7835621275688236e-18  -9.3862090096084826e-19  -1.0501026611631594e-18  -2.5359752359120693e-18  -3.1747374489863659e-18  -1.6344137467718731e-18  -9.3436110397650890e-20  -4.0291255681538516e-18  -4.9164654611808057e-18  1.6344512114769424e-18  -5.5100944507450270e-19  -2.6610798225126771e-18  -6.6906436269807715e-19  -1.8924873055381079e-18  -2.6204309701900323e-19  8.1751469120847906e-19  -6.0707264010871964e-19  -3.0773877853953093e-19  3.6990446314248941e-20  -7.2493229843268958e-20  -1.5918942127515381e-19  2.8506593453677473e-19  5.0576384047823793e-19  -1.2492517783808835e-18  -2.3239931212905143e-18  -7.8074707678400098e-20  -1.7467704971201203e-18  -3.9893091971755794e-18  -2.2757674100251786e-18  2.3892029091523330e-19  -1.3574240424164864e-18  8.0620678642626886e-19  1.8042441700646574e-18  6.7920292251464809e-20  -1.0165302000171321e-18  -2.6760486756774490e-18  -4.6857602637726315e-18  -1.9843264156557632e-18  2.7647916285959891e-18  3.1598853806945916e-18  -1.3855971992848372e-20  -1.8766840778104766e-19  2.4855364939294153e-19  -3.1914923362040285e-19  -2.8763729950213047e-18  -5.4916459301031713e-18  -3.5900209249031080e-18  -2.0183216091581041e-18  -2.3145655541088750e-18  -8.5496540482902189e-20  9.8227269732208567e-19  -8.5783421168691193e-20  -1.4124600839334370e-18  -6.2080705051701952e-19  -2.1853335072755382e-18  -2.2663794298761051e-18  -1.0337324051413097e-18  -1.4998611725483849e-18  -2.2844270453596710e-18  -6.3766056404371218e-19  -7.9167634415150732e-19  -2.5474789608269501e-18  -1.1105912797549614e-18  7.7195587619174751e-21  -1.1577902485669461e-19  -1.0857644943689116e-19  -2.0489027586839617e-19  4.1660114207212822e-19  -3.1097569859045564e-19  -8.7061988080628891e-19  -5.9821768853835773e-18  -3.9812497016213170e-18  -3.6610903284962379e-18  -1.5441428915995742e-18  -5.2061443178519771e-18  -7.8597561946982688e-18  -4.7476178812760422e-18  -3.5725168042864397e-19  3.3447393158081230e-18  8.5807120040305240e-19  -2.7630434535748576e-18  -9.0379723596700916e-19  2.0102444805170006e-19  7.2993503482254415e-19  1.6532641275423799e-18  9.8415273704322549e-19  -1.3436834879767404e-19  -2.9376142039094296e-19  -7.7180146339036235e-02  -6.8802348840462338e-02  -6.1240665523305753e-02  -5.4988341043172781e-02  -5.0464052709145182e-02  -4.7464380721286240e-02  -4.5903098175552950e-02  -4.4988184386878773e-02  -4.5665212953115347e-02  -4.7312813354647820e-02  -5.0146890448962728e-02  -5.4448366002035592e-02  -6.0621948197471409e-02  -6.8308086124415274e-02  -7.6668367398266241e-02  -7.9719725834289865e-02  -7.3960196470111178e-02  -6.7760062100826843e-02  -6.2287503869369487e-02  -5.7717882147846018e-02  -5.4412475552901657e-02  -5.1942251652067548e-02  -5.0332843817252344e-02  -4.9376938178069971e-02  -4.8997331234779326e-02  -4.9173661609985972e-02  -5.0071439297004389e-02  -5.1548732812277301e-02  -5.4180911522864202e-02  -5.7562036089625422e-02  -6.1977519553775035e-02  -6.7402513125209146e-02  -7.3580979387396980e-02  -7.9238540100037891e-02  -7.5760525110631721e-02  -6.7767136500790817e-02  -6.0268750047264619e-02  -5.4111147771287726e-02  -4.9718964969499353e-02  -4.6629783467235501e-02  -4.4804933003331847e-02  -4.4139309330414531e-02  -4.4563106443046896e-02  -4.6162038498762117e-02  -4.9314450010652197e-02  -5.3765403726597369e-02  -6.0192769501332177e-02  -6.7873388054183525e-02  -7.6117375516514971e-02  -7.9709403687175939e-02  -7.3931458543961590e-02  -6.7980813392486072e-02  -6.2711945498010582e-02  -5.8523023639844476e-02  -5.5227096634333561e-02  -5.2625030353215696e-02  -5.1140602199008914e-02  -5.0152951699689322e-02  -4.9781175504426241e-02  -5.0114770737767420e-02  -5.0972185614257627e-02  -5.2610069099782386e-02  -5.5052808439335119e-02  -5.8382854293683430e-02  -6.2874367940878251e-02  -6.8358802745217148e-02  -7.4483222930270515e-02  -8.0206536289260277e-02  -1.3691868055250406e-02  -5.7778628451420231e-03  -1.4178934275499148e-02  -6.1403440588393646e-03  -1.1411787732231778e-02  -9.8364359890005647e-03  -1.3576133682975972e-02  -7.1450863110455913e-03  -8.8397059892007400e-04  -2.5797485890637632e-03  -4.6201435163624108e-04  -1.6278350066768867e-03  -5.1106387096121273e-04  -1.2599175553462539e-03  -1.9509964381363539e-02  4.7698620868476347e-03  -1.3976177603179417e-02  -1.4885095100815961e-02  5.0443168980079814e-04  -2.1437543251025298e-02  -2.8219369018482619e-02  -2.6848395979011255e-02  -3.0314678392005183e-02  -2.7268383020095755e-02  -3.8831450093215689e-02  -3.6587596181032189e-02  -3.9841572320354672e-02  -3.9011602135354616e-02  -2.1265017233282786e-02  4.2820638601466249e-03  1.2559769867853867e-02  3.0281316813166603e-02  4.0029045372521388e-02  5.7063966018913503e-02  6.8925585972181097e-02  8.1887546910057438e-02  4.2835762759966402e-02  9.5639354039701641e-02  1.0401719719201266e-01  7.9787344841232608e-02  9.8662818022970097e-02  7.1902534146075489e-02  8.1732831129070385e-02  1.0595976254622051e-01  8.5939870608187932e-02  1.0228162619647506e-01  7.7665091653037560e-02  8.3492720295576500e-02  5.9159699947662132e-02  5.8226292498714367e-02  7.5774593343591989e-02  9.9459297029855093e-02  8.2095282215196422e-02  1.0124269224606158e-01  8.1470843142856117e-02  9.7620486746949384e-02  7.5497392993243095e-02  8.8027524521447811e-02  6.1730525517231669e-02  7.6477680061057415e-02  1.0029236132860825e-01  7.9980533262912032e-02  9.9666407740040486e-02  5.6864603862634741e-02  5.4187246598108488e-02  4.0956072468891568e-02  4.4807568078549714e-02  5.3708408214865416e-02  4.0173076373020075e-02  6.0689395049967156e-02  8.5387339546467836e-02  1.9183640690639697e-02  3.4226592138085953e-02  4.8480935465410324e-02  4.2537501011720151e-02  5.6436877633735082e-02  8.8113140629832984e-02  5.2957254185071009e-02  8.1310540444706203e-02  1.0859054115944210e-01  9.3847129705946442e-02  7.0277230071200208e-02  7.5832121281652273e-02  1.0469988738373304e-01  7.9906128915275654e-02  5.6793063897860215e-02  5.6434230886022320e-02  7.1082168810494173e-02  3.5996015875198593e-02  3.0455901806738239e-02  1.1690236303384983e-02  1.1185289924109179e-02  1.1643260412798236e-01  2.9698169916839698e-02  3.1979563308983203e-02  2.3724421026588359e-02  4.0750547002789121e-02  8.9861149288596176e-03  5.1561198743517661e-03  1.9516297570325424e-02  4.9747353431584471e-02  2.5021309784198548e-02  1.5014628348219853e-02  3.2616936126584388e-02  5.9653284298530382e-02  3.8146534464859154e-02  3.2817649867422721e-02  5.5114396714301427e-02  3.2790954930903032e-02  1.4524917344651623e-02  7.8894513511614979e-03  1.9649296530676531e-02  1.9958750900407531e-02  3.1215986005275472e-02  8.5349692375884766e-03  5.2992220729640806e-02  1.2022831380742673e-01  1.1514642679364515e-02  1.2012483869077266e-01  7.4012268559487324e-02  4.5271905026900532e-02  6.9236059500067948e-02  4.2871503614558035e-02  2.1053342771975649e-02  1.6732673150879313e-02  3.3101589448961598e-02  5.1783197030406569e-02  3.2811462058309662e-02  2.6435549751124676e-02  1.0836778164482412e-01  -6.4794585955348224e-03  -9.6025347634754541e-03  4.8244009781021356e-02  2.3432234151284700e-02  2.9254650089083612e-02  4.3294465514269360e-02  3.1659453433317122e-02  1.2267436930070269e-02  3.0734440112239202e-02  1.3943767184410602e-02  9.1703045002810239e-03  -4.1814798072099622e-03  -1.7928585527849896e-02  -1.9928722988742559e-02  2.0511861783661236e-02  2.5150357342685952e-03  -7.2267300777534467e-04  -4.0827597402856497e-03  -2.1461021962479624e-02  -2.7754679290009680e-02  -4.2589788273554689e-03  2.2893160831103921e-02  4.6781034004005878e-02  -1.4161788889476400e-02  -8.5056342088208250e-03  -2.0518496221636111e-04  -2.0865881420414730e-02  1.0549096631071652e-03  1.6447040269256675e-03  -8.8516595859620129e-03  -2.7763640938491218e-02  -5.2524407352461363e-03  -5.7008314683171084e-04  -1.0138438015830493e-02  1.2224030749651263e-02  -5.6739749468846133e-03  1.5140471797555568e-02  -3.1646219604702002e-03  -1.5844566309935582e-02  -2.9785357430433826e-02  -1.9106136770822749e-02  9.1256620411584062e-03  3.3278381494876434e-02  -5.9532332144425059e-03  -8.3731891918402516e-03  5.4456082164846204e-03  -3.9898794842308946e-02  -4.0655910970297207e-02  -3.8933160292036258e-02  -3.9769027987579086e-02  -3.8636855064283385e-03  1.0963988197124587e-01  1.2344498501389657e-01  2.2746363889676664e-02  -1.0440028456942318e-02  -1.2540140684639847e-02  -6.2100617644501388e-03  -2.8240068206177860e-02  -1.1194363161914065e-03  2.0058946277483258e-03  2.7142698795958892e-02  4.6574707535889624e-02  3.2757990139004441e-04  4.6535349639432122e-02  1.1768682209507385e-01  1.1658289604326581e-01  9.1870486802075116e-02  1.8516990097511146e-02  3.1508762226583041e-03  2.4135707387418739e-02  1.7336459769015947e-02  2.4452235603851111e-02  -4.5322949437498674e-03  -2.9602841992047704e-03  1.1394659328920029e-01  -8.7988165345344090e-03  2.1306730537193126e-02  1.6398568045375029e-02  5.4535406918653578e-02  4.6352037251918311e-03  4.8980755622910391e-02  9.1451609662869485e-02  -6.0721955619839878e-03  1.2636456906930105e-01  6.3874294450118690e-02  -2.3444695543673889e-02  4.6426590832098290e-02  2.3623989574881474e-02  1.8847554116036242e-02  1.1046913717917346e-01  -5.9565910232357777e-03  9.8606131649607090e-03  2.2719621794219512e-02  1.2864539001402164e-01  1.5646833083672700e-02  2.7513118481649886e-02  1.2354725149097692e-01  5.9707663324703120e-02  2.5746925374592135e-02  1.2813900125761993e-01  4.9234826064204575e-02  1.0343164112729153e-02  5.8124447521196651e-03  3.5046365540019865e-02  5.8312515392254974e-02  2.2944144304412446e-02  -7.1681782869372265e-03  4.6690794378275793e-02  -4.9480840847869474e-02  -4.8885166699415047e-02  -4.9885666068019939e-02  -4.9275435206586525e-02  1.0203818461005229e-02  -8.7325676889722648e-03  1.1283765301173594e-02  -1.3868806944400901e-03  2.0186859966916115e-02  6.3322356680400246e-02  -5.7209084585594398e-03  5.6500695079025358e-03  3.9144174706207645e-02  6.9888605678880222e-02  5.7860566925342846e-02  7.2509100046338704e-02  7.8587845919006281e-03  6.9983439164065367e-02  2.7192977663708866e-02  7.7890993625536864e-02  1.2683065906714353e-01  3.2248254976295597e-02  5.5742263207429317e-02  3.9097982940102680e-02  2.2997058707959095e-02  6.5072503484289196e-02  6.9988533019248664e-02  1.1914091714988193e-01  -1.8434567762536779e-02  -7.7725939445398184e-02  -7.8009042511217347e-02  -8.4487419509249512e-02  -9.6762147284964878e-02  -8.4613882564842133e-02  -9.7056250345240749e-02  -7.7173220924856900e-02  -8.3255859779933619e-02  -7.6964436910573281e-02  -8.3229148862948271e-02  -9.5755606472306784e-02  -9.6160680707068125e-02  -5.5270806381327482e-02  -4.8374917805778871e-02  -5.8563507783240820e-02  -5.0996716301545418e-02  -6.9918774444955742e-02  -8.7411610088894573e-02  -8.6273601885333395e-02  -6.8680075420358741e-02  -1.0141305142638342e-01  -1.0941399671795965e-01  -7.0951972587922685e-02  -7.1721060440209303e-02  -9.3949391394816326e-02  -1.1081320323703797e-01  -1.1940279784245374e-01  -1.1986315756969523e-01  -1.2808652618377234e-01  -1.2945924942968490e-01  -4.7154276240244333e-02  -4.4824508725722016e-02  -4.6417858147972405e-02  -4.5246449544578474e-02  -4.9494653015497117e-02  -4.6469620627848082e-02  -5.0122582761529769e-02  -1.3487277157930963e-01  -1.3621089057224445e-01  -1.1900727150266197e-01  -1.1085413969443358e-01  -3.3883500475698124e-02  -4.2487306106700699e-02  -3.9416428754808927e-02  -2.8600506959690911e-02  -3.0455710196333270e-02  -2.6876446244490836e-02  -4.1783088639481707e-02  -4.5671903775527004e-02  -1.1641980853736347e-01  -1.0882440190632323e-01  -5.2254740489225800e-02  -4.5363845286927953e-02  -5.2062686037054023e-02  -1.0604363101484562e-01  -1.1044638898620729e-01  -1.1766796769933262e-01  -1.2277605862881381e-01  -1.2892623228888472e-01  -1.3199573966549544e-01  -1.2525722124805871e-01  -1.3639129269700531e-01  -1.3439497815407206e-01  -1.3557667297722839e-01  -1.0669392697220918e-01  -1.1165361762712736e-01  -1.1852983959709314e-01  -1.2365554444252544e-01  -1.1820201681762807e-01  -1.2979444453792094e-01  -1.3280430447896352e-01  -1.3720847811307679e-01  -1.3522660217649429e-01  -1.3659417335929575e-01  -8.0155926226904609e-02  -1.0104026670685722e-01  -1.0899950958734740e-01  -1.1050330953267481e-01  -1.1904564040070985e-01  -1.1936325074896645e-01  -1.2748715285963744e-01  -1.2883661627826343e-01  -1.3410618467477814e-01  -1.3585206510525055e-01  -6.7057825686030983e-02  -6.8449934000652260e-02  -7.5980124699868562e-02  -7.5127337617183779e-02  -1.2556069743590140e-01  -1.3847073198339635e-01  -1.3707650908961733e-01  -1.3619233097537431e-01  -1.3775929710912754e-01  -1.3607162135390108e-01  -5.1105950803529122e-02  -1.3671343458658725e-01  -1.3547136878924718e-01  -1.3695094651030382e-01  -1.3772450134497349e-01  -1.3659022744560739e-01  -1.3130887340458139e-01  -7.8871732602739081e-02  -1.3349193510965443e-01  -1.3311859072185270e-01  -4.6293231303521316e-02  -4.1691493669986604e-02  -4.5292593632218589e-02  -1.3239025746524694e-01  -1.3377973294888817e-01  -1.0728560453849061e-01  -9.9883757286088615e-02  -1.3401755714820360e-01  -1.3381383268556846e-01  -1.3487540411912424e-01  -1.3481635749878759e-01  -1.3185067721529653e-01  -1.3374833207336156e-01  -1.2843744010022817e-01  -1.2937664999306575e-01  -1.2452455902670241e-01  -1.2472819282780059e-01  -1.3138092249795638e-01  -1.3243836284771532e-01  -1.2750020766448567e-01  -1.2797554552141419e-01  -1.2322345866585602e-01  -1.2370570832384388e-01  -1.1922191320865486e-01  -1.2011760287476214e-01  -1.1570847201380273e-01  -1.1758608976323494e-01  -1.1361055657980673e-01  -1.1657566614097295e-01  -1.1291199526831747e-01  -1.1705264410223092e-01  -1.2026049522772252e-01  -1.2112840976551870e-01  -1.1665437664728558e-01  -1.1865493387887782e-01  -1.1454971519750477e-01  -1.1771784908291960e-01  -1.1379535262772669e-01  -1.1820849770285559e-01  -1.3089451974665514e-01  -1.2899267749959040e-01  -1.1883363844898158e-01  -1.1959194935055384e-01  -1.3159709992015417e-01  -1.2906493246806489e-01  -1.1383200654250340e-01  -1.1897622019058056e-01  -1.1569340302085668e-01  -1.2186180677604540e-01  -1.1846134377778858e-01  -1.1469921865041843e-01  -1.2007799195206188e-01  -1.1649467799304113e-01  -1.2303172268132702e-01  -1.1937392603535774e-01  -1.3208176090730991e-01  -1.3067512843015422e-01  -1.2432544728072799e-01  -1.1711256011123823e-01  -1.2094985044341509e-01  -1.1573714377185559e-01  -1.1942038381080709e-01  -1.1188371736593714e-01  -1.1882686694575136e-01  -1.1124884409846723e-01  -1.1886784882235919e-01  -1.1375210505105438e-01  -1.0093169832697962e-01  -1.1247804055073926e-01  -1.2646834319339423e-01  -1.1978249450414734e-01  -1.1812078378535157e-01  -1.0170024618328612e-01  -1.2828134735361357e-01  -1.1922305045056547e-01  -1.1939164642109770e-01  -1.1788979735851603e-01  -1.1867683819546254e-01  -8.9715950847918877e-02  -9.5802188568376426e-02  -8.2346194015246288e-02  -9.3793011993231340e-02  -1.1288083217477524e-01  -1.2052929215391700e-01  -9.4489119004257022e-02  -1.2787674210751945e-01  -3.7995668719086807e-02  -1.0196478347172079e-01  -1.3027104475730045e-01  -1.0914767094644376e-01  -7.7108730996802238e-02  -8.6060719246705511e-02  -1.0821804576823162e-01  -1.1257919497602459e-01  -1.1341361457697330e-01  -1.0251181626275618e-01  -1.1097534523688835e-01  -1.0370249833722030e-01  -1.0964944307769080e-01  -1.0214731364181906e-01  -1.0239482283743376e-01  -9.4696004150735258e-02  -1.1178711912942746e-01  -9.4137056113259412e-02  -8.8392964598559276e-02  -8.7290521423015813e-02  -8.3542179595962690e-02  -8.3312744110923057e-02  -8.0968554283674388e-02  -8.1344237530361810e-02  -1.1627119148102061e-01  -1.2120257892452810e-01  -1.1270438775315014e-01  -1.2073743628055940e-01  -9.0238127767180529e-02  -8.5300975909810589e-02  -9.7027391872929844e-02  -8.1682126460370583e-02  -1.1459703241197970e-01  -1.1558320479121006e-01  -7.2924093745990751e-02  -3.4261829834325352e-02  -4.1297363223914640e-02  -3.7909414958500399e-02  -1.0709175499429135e-01  -1.0127212957535869e-01  -1.2420347135301436e-01  -1.1436101631821849e-01  -1.1467473090552806e-01  -9.8851088814949251e-02  -1.0307824101295712e-01  -9.9307730026645960e-02  -1.0044798404065898e-01  -1.0345709572243163e-01  -1.0755897510577449e-01  -1.0009585315820714e-01  -9.0596992230130929e-02  -9.1507157330707356e-02  -9.1436224656204684e-02  -8.7171119068780098e-02  -8.4148176372983080e-02  -8.4305030351906216e-02  -7.6640005980877945e-02  -8.1653282544352654e-02  -8.1797771272923175e-02  -8.3123340530983122e-02  -8.0076312360401497e-02  -8.6101096458818221e-02  -7.9679558445562973e-02  -8.9768140735274962e-02  -8.8686664360047809e-02  -9.5152839527049657e-02  -9.4171580929946389e-02  -1.0310664815808512e-01  -9.8074893483679620e-02  -1.1270723357968877e-01  -1.0027522185715362e-01  -1.1648775377302227e-01  -1.0584280409474123e-01  -1.1165448443147739e-01  -1.0400780173451366e-01  -1.2830585106063089e-01  -1.1795739472027299e-01  -7.9722038157554700e-02  -9.2701162597982223e-02  -1.0435969920961698e-01  -1.0254115834551185e-01  -1.1674029041021236e-01  -8.0604260785864482e-02  -1.2585638879190522e-01  -7.2650436384075312e-02  -9.4059197879351381e-02  -8.5641874248708699e-02  -1.0781168376633218e-01  -9.4931009970526614e-02  -1.1526026406037265e-01  -7.7971216464009424e-02  -1.0215301958328062e-01  -1.0442545778022377e-01  -9.2679357336045196e-02  -8.9606536388118024e-02  -1.0470938470539833e-01  -8.3018589620164659e-02  -7.9321746667879112e-02  -8.8267938906660084e-02  -9.4752994876658073e-02  -1.025998017