<?xml version="1.0"?>
<VTKFile type="UnstructuredGrid"  version="0.1"  >
<UnstructuredGrid>
<Piece  NumberOfPoints="1297" NumberOfCells="2496">
<Points>
<DataArray  type="Float64"  NumberOfComponents="3"  format="ascii">0 0 0  0 1 0  1 1 0  1 0 0  1.1 -0.1 0  -0.1 -0.1 0  1.1 1.1 0  -0.1 1.1 0  0.2579753115993445 0.6808328247282804 0  0.2557146730834933 0.3206764251961631 0  0.7423225709699237 0.3201716206984317 0  0.7435411639715268 0.6782266987841117 0  0.4996662767911735 0.5001849637292467 0  0 0.9499999999997918 0  0 0.8999999999995836 0  0 0.8499999999996529 0  0 0.7999999999999998 0  0 0.7500000000003466 0  0 0.7000000000006934 0  0 0.6500000000010401 0  0 0.6000000000013869 0  0 0.5500000000017335 0  0 0.5000000000020587 0  0 0.4500000000018723 0  0 0.4000000000016644 0  0 0.3500000000014564 0  0 0.3000000000012483 0  0 0.2500000000010403 0  0 0.2000000000008322 0  0 0.1500000000006241 0  0 0.100000000000416 0  0 0.05000000000020799 0  0.04999999999989965 0 0  0.09999999999981467 0 0  0.1499999999997036 0 0  0.1999999999995579 0 0  0.2499999999994121 0 0  0.2999999999992664 0 0  0.3499999999991206 0 0  0.3999999999989749 0 0  0.4499999999988292 0 0  0.4999999999986943 0 0  0.5499999999988151 0 0  0.5999999999989468 0 0  0.6499999999990784 0 0  0.69999999999921 0 0  0.7499999999993417 0 0  0.7999999999994734 0 0  0.8499999999996051 0 0  0.8999999999997368 0 0  0.9499999999998684 0 0  1 0.04999999999989965 0  1 0.09999999999981467 0  1 0.1499999999997036 0  1 0.1999999999995579 0  1 0.2499999999994121 0  1 0.2999999999992664 0  1 0.3499999999991206 0  1 0.3999999999989749 0  1 0.4499999999988292 0  1 0.4999999999986943 0  1 0.5499999999988151 0  1 0.5999999999989468 0  1 0.6499999999990784 0  1 0.69999999999921 0  1 0.7499999999993417 0  1 0.7999999999994734 0  1 0.8499999999996051 0  1 0.8999999999997368 0  1 0.9499999999998684 0  0.9499999999997918 1 0  0.8999999999995836 1 0  0.8499999999996529 1 0  0.7999999999999998 1 0  0.7500000000003466 1 0  0.7000000000006934 1 0  0.6500000000010401 1 0  0.6000000000013869 1 0  0.5500000000017335 1 0  0.5000000000020587 1 0  0.4500000000018723 1 0  0.4000000000016644 1 0  0.3500000000014564 1 0  0.3000000000012483 1 0  0.2500000000010403 1 0  0.2000000000008322 1 0  0.1500000000006241 1 0  0.100000000000416 1 0  0.05000000000020799 1 0  -0.1 1.05000000000004 0  -0.1 1.000000000000079 0  -0.1 0.9500000000001624 0  -0.1 0.9000000000003032 0  -0.1 0.850000000000444 0  -0.1 0.8000000000005848 0  -0.1 0.7500000000007256 0  -0.1 0.7000000000008665 0  -0.1 0.6500000000010508 0  -0.1 0.6000000000012352 0  -0.1 0.5500000000014196 0  -0.1 0.500000000001539 0  -0.1 0.4500000000014195 0  -0.1 0.4000000000013 0  -0.1 0.3500000000011588 0  -0.1 0.3000000000010178 0  -0.1 0.2500000000008986 0  -0.1 0.2000000000007579 0  -0.1 0.1500000000006174 0  -0.1 0.1000000000005272 0  -0.1 0.05000000000040083 0  -0.1 2.671196597248127e-13 0  -0.1 -0.0499999999998666 0  -0.0500000000000906 -0.1 0  -1.730560139634463e-13 -0.1 0  0.04999999999975802 -0.1 0  0.09999999999961506 -0.1 0  0.1499999999994613 -0.1 0  0.199999999999302 -0.1 0  0.2499999999991446 -0.1 0  0.2999999999990088 -0.1 0  0.3499999999988296 -0.1 0  0.3999999999986936 -0.1 0  0.4499999999985143 -0.1 0  0.4999999999984002 -0.1 0  0.5499999999985247 -0.1 0  0.5999999999986493 -0.1 0  0.6499999999987955 -0.1 0  0.6999999999989417 -0.1 0  0.7499999999990659 -0.1 0  0.7999999999992116 -0.1 0  0.8499999999993573 -0.1 0  0.8999999999994526 -0.1 0  0.949999999999584 -0.1 0  0.9999999999997226 -0.1 0  1.049999999999861 -0.1 0  1.1 -0.0500000000000906 0  1.1 -1.730560139634463e-13 0  1.1 0.04999999999975802 0  1.1 0.09999999999961506 0  1.1 0.1499999999994613 0  1.1 0.199999999999302 0  1.1 0.2499999999991446 0  1.1 0.2999999999990088 0  1.1 0.3499999999988296 0  1.1 0.3999999999986936 0  1.1 0.4499999999985143 0  1.1 0.4999999999984002 0  1.1 0.5499999999985247 0  1.1 0.5999999999986493 0  1.1 0.6499999999987955 0  1.1 0.6999999999989417 0  1.1 0.7499999999990659 0  1.1 0.7999999999992116 0  1.1 0.8499999999993573 0  1.1 0.8999999999994526 0  1.1 0.949999999999584 0  1.1 0.9999999999997226 0  1.1 1.049999999999861 0  1.05000000000004 1.1 0  1.000000000000079 1.1 0  0.9500000000001624 1.1 0  0.9000000000003032 1.1 0  0.850000000000444 1.1 0  0.8000000000005848 1.1 0  0.7500000000007256 1.1 0  0.7000000000008665 1.1 0  0.6500000000010508 1.1 0  0.6000000000012352 1.1 0  0.5500000000014196 1.1 0  0.500000000001539 1.1 0  0.4500000000014195 1.1 0  0.4000000000013 1.1 0  0.3500000000011588 1.1 0  0.3000000000010178 1.1 0  0.2500000000008986 1.1 0  0.2000000000007579 1.1 0  0.1500000000006174 1.1 0  0.1000000000005272 1.1 0  0.05000000000040083 1.1 0  2.671196597248127e-13 1.1 0  -0.0499999999998666 1.1 0  0.2441581305787216 0.6624743801989502 0  0.2343599419620525 0.6395208960349806 0  0.2260592737053402 0.6156604020814392 0  0.2194325186184675 0.5919008550317235 0  0.2142977085018948 0.5687833119628948 0  0.2101611599225681 0.5461940944035004 0  0.2073432707419499 0.5236626483431026 0  0.2068713911953967 0.5012269411181971 0  0.2072908616633703 0.4788126846899777 0  0.20968582533676 0.4560417193285221 0  0.2134153992460083 0.4332133532916948 0  0.2184148994356543 0.4102165603335009 0  0.2244474085960731 0.3866421767088215 0  0.2323319212181681 0.3625314495144577 0  0.2419270233832219 0.3393882642106635 0  0.2760295324162649 0.309176836635285 0  0.3002774205743152 0.3009329219006762 0  0.3257627743191512 0.2937874823046195 0  0.3514072577667823 0.2875739179031589 0  0.376707314964326 0.2823026025860658 0  0.4015364120653272 0.2776058242335395 0  0.4260595160406398 0.2737461926759719 0  0.4504949734709739 0.270653415031184 0  0.4749478353957187 0.2689562864892824 0  0.499266060086062 0.2683902400785652 0  0.5235738330521728 0.269085686135196 0  0.5479276769809259 0.2709310978403233 0  0.572454757103448 0.2737040738344934 0  0.5970462839950018 0.2777016471186484 0  0.6220919745231808 0.2822342596370008 0  0.6474766274146592 0.2875011789180754 0  0.6729631400786714 0.2935708015339853 0  0.6981789569903237 0.3005552232075566 0  0.7221644406332657 0.3085803601452045 0  0.7555948214987802 0.3387469396595333 0  0.7656727279222525 0.3612625334979812 0  0.7739571227481677 0.3850755041675719 0  0.7804032847317488 0.4086653834813184 0  0.7856187729950204 0.4317101087599115 0  0.7893126451498116 0.4544816861553536 0  0.7914331373141972 0.4769141316100898 0  0.7918774043805547 0.4989782470937772 0  0.7909083726414198 0.5209831847547616 0  0.7886443567574603 0.5430955909034345 0  0.7852437111876737 0.5656815719269044 0  0.7804961972644311 0.5886211669640264 0  0.7745862707386755 0.6125979893244478 0  0.7666498432589092 0.6366255245471685 0  0.7569416535257019 0.6595204821425814 0  0.7233294057603256 0.690018004562071 0  0.6992439089784189 0.6980417571898309 0  0.6742720920087413 0.7053837586948932 0  0.6487952416595817 0.7120086634339546 0  0.6234043948315581 0.7177840383982727 0  0.5982280676032125 0.7226783539975087 0  0.5736083683809919 0.7268636408184994 0  0.5491517467062432 0.7297660592838975 0  0.524894666475021 0.7315959730470363 0  0.5007423651104949 0.7322137063944172 0  0.4765463120464712 0.7316988274836962 0  0.4522464560347871 0.729891241623152 0  0.4279344170916823 0.7269212859670021 0  0.4033153578482137 0.7231896549825924 0  0.3782629634782181 0.7186811363301056 0  0.3529945372902603 0.7133765751012991 0  0.3274521587903763 0.7072781776131635 0  0.3021120318292967 0.700246273961779 0  0.2781016289904071 0.6921299724625907 0  0.361847250995525 0.3101864635794458 0  0.2398027519665099 0.443352294838656 0  0.3634040331648534 0.6907919919369843 0  0.2405107706740284 0.5586083928315682 0  0.7571958144542763 0.5787105256132798 0  0.6123431501352704 0.6957461073953687 0  0.6357067217968811 0.3093431119298534 0  0.7609960266628844 0.4411406306127821 0  0.7634431550499151 0.5097139434762654 0  0.5603602694583287 0.2966461175790949 0  0.438370564985236 0.2988113829210127 0  0.4385498237942469 0.702193749031135 0  0.5374973611357955 0.7047941788709348 0  0.2358887186279758 0.4895214301248035 0  0.2464335545528751 0.3963545302051753 0  0.4870863181721353 0.2980233125743427 0  0.254615041101252 0.604073622403361 0  0.7447374795695528 0.3928004270973204 0  0.4883482755533077 0.7059180717296875 0  0.6636254227311493 0.6843816893293682 0  0.3095549507883233 0.3240162243648845 0  0.689357067006355 0.3251234270618548 0  0.3122806553852653 0.6797445490838484 0  0.742981091987983 0.6281701182765966 0  0.2620445482676323 0.3491637444823291 0  0.2666295466646262 0.6511217254009287 0  0.7143894036658023 0.6708496684528497 0  0.7367241938215223 0.3478939654503604 0  0.3378059925063894 0.6856092221620342 0  0.3483141574750502 0.6641583330596285 0  0.3739837984557134 0.6681484746570358 0  0.3583156515742766 0.6418310408654863 0  0.3852946389139781 0.6450562775050734 0  0.3683779050967922 0.6164724491452984 0  0.4008498685713425 0.6193133024489571 0  0.3808495648466947 0.5857489783045428 0  0.3358641374490454 0.6124389607882239 0  0.4204930308131442 0.5874827631724346 0  0.3964095431519107 0.5497357288922075 0  0.3492375811092468 0.5542302050399265 0  0.3686353622969366 0.5149257100746676 0  0.3231054633908074 0.5168767698981647 0  0.3388841097329289 0.4823162114038039 0  0.3864314258953578 0.4763757171383396 0  0.361819806458771 0.4435533557052896 0  0.4045134190054084 0.436853686111783 0  0.3817437453469839 0.4055775721553355 0  0.4203964648406421 0.3918170300191925 0  0.3412248060979363 0.4090567181938235 0  0.3934389158946924 0.3707651848087932 0  0.4320297374116136 0.6229075862994464 0  0.4605494922563174 0.5966271476747584 0  0.4818546954618546 0.6245791768755025 0  0.5025279994010631 0.5985646532166902 0  0.522460797051077 0.6246372913532073 0  0.5434837223680331 0.598506970175209 0  0.5627073451771646 0.6243036110259581 0  0.5841411085512026 0.5982813939519865 0  0.6036443816807627 0.6260739356032634 0  0.6250930892984864 0.5904537794588746 0  0.607141053
[...]
<PointData  Scalars="u"> 
<DataArray  type="Float64"  Name="u"  format="ascii">-1.3252930719944381e-18  -4.4610700801105037e-18  -2.1532797188712912e-18  -2.0204799269841303e-19  4.0604618952777827e-21  1.1259093090595686e-20  1.1211778367632054e-19  2.2960383385601906e-19  -7.8816065758971987e-02  -7.8983161333147020e-02  -7.9537731178559543e-02  -7.9338314664350984e-02  1.3052361900917472e-01  -6.5385912958557911e-18  -1.1316159016678365e-17  -1.5606163081383310e-17  -1.9102559755143396e-17  -1.2197371484733379e-18  -2.5242981317523964e-17  -1.6881418326758668e-17  -2.3589061337522639e-17  1.0514516964560151e-17  -3.3604915583354944e-17  -4.2259704407102860e-17  1.7751296299163346e-17  -8.4848396485496741e-18  -1.9648720228899543e-17  1.2062829657514634e-17  -1.6573578795417514e-17  5.3021268867935162e-18  7.3596852152909607e-18  -6.8175203949979637e-18  -1.8134649224304638e-18  -4.2631430822329491e-18  -5.5313692908783666e-18  -2.2084744906314212e-17  -1.5101354812074697e-18  2.2660234816269879e-18  -2.7869787726160085e-17  -3.0423002751149405e-17  1.1921714858515776e-17  -1.5328919863042618e-17  2.4654882380153744e-18  3.4330961997134324e-17  -1.9707191438634723e-17  3.3266934664278108e-18  -1.9289518189512122e-17  -3.0995820461496596e-17  -1.1350656651009321e-17  1.1754106985033535e-17  2.0915455365798766e-17  -2.1527352515048878e-17  -3.7657600656536945e-17  -2.2195587582391864e-17  -1.3483892842062349e-17  -2.3582425387319303e-17  8.2971199531436875e-19  0.0000000000000000e+00  -8.1844126627777040e-18  -8.3270379846971897e-18  -1.0350119639362935e-18  -1.3440119270595598e-17  -1.3896708674261883e-17  -5.2379362084330439e-18  -1.2033494313710006e-17  -1.6058012018187659e-17  -9.8673267544546578e-18  -6.3028249180997906e-19  -2.7940852712274820e-17  -2.3894486597320008e-18  0.0000000000000000e+00  -3.8771637470856913e-18  -1.7637857866885879e-17  -5.8284904751394502e-18  -3.8725145064116650e-17  -2.2894085795187608e-17  -1.5981262825234976e-17  -1.5867021663668647e-17  -4.3841810295885155e-17  -4.3086222215307480e-17  -3.8949737976552627e-18  2.6035957326425900e-17  1.2301039296645207e-17  -1.7432642238248657e-17  -2.6770788079576255e-18  -3.0574416526919208e-18  1.1699488306517382e-17  4.2159198621618875e-18  9.3309927948259062e-18  -7.5938127102591431e-20  -3.9047748795698337e-19  -1.3669022650601479e-18  -2.3980045159656068e-18  -2.9616912240627486e-18  -9.8713900711580362e-19  -1.0454478328673132e-18  -2.5880164207728986e-18  -3.5045827790035021e-18  -1.7902791417805837e-18  7.6871364018262729e-20  -4.4696987281464048e-18  -5.8691612303308892e-18  1.1653954345602727e-18  -5.4213928470767145e-19  -2.5542091469097583e-18  -2.3519778229273548e-19  -1.3440637742761501e-18  -4.8995535685066069e-20  1.0367621558809866e-18  -6.3462092740503661e-19  -4.4010967901304531e-19  9.5940561382519659e-20  -1.6377149972154839e-20  -2.0247698999551680e-19  -3.6854803007154533e-19  -3.4735795764961136e-19  -1.3379814761444611e-18  -2.4187469626278420e-18  -4.4025055799352128e-19  -1.3773431737595237e-18  -4.0304940346901653e-18  -3.2894383666871848e-18  3.2597870409801333e-20  -1.0128471701107628e-18  1.2899214173022319e-18  1.8658315127441305e-18  -3.7710658702939828e-19  -1.0792760188463786e-18  -2.2145657639726887e-18  -4.3439249100561702e-18  -2.2006957827298832e-18  1.8799523056288369e-18  2.9695075373807584e-18  1.9737553817991241e-19  -2.3798182300073539e-19  2.5278308071789992e-19  -2.6635113269471578e-19  -3.0468653352949879e-18  -5.5023685399260293e-18  -3.4262723293954602e-18  -2.3219841382227701e-18  -2.7774148943730154e-18  -9.6183608043264969e-20  5.5117115114241682e-19  -6.5067680330979933e-20  -1.2915865020810848e-18  -4.5446563840688579e-19  -1.7079692081970495e-18  -1.9648993108469099e-18  -1.1123726776540345e-18  -1.1852846227222215e-18  -2.0684076050695479e-18  -1.0516667645952322e-18  -1.1227650947652029e-18  -2.7074484119538825e-18  -1.1725022873959408e-18  7.3633753530371700e-20  -1.2194356646462026e-19  -6.6061241270201839e-20  -2.1260905271345465e-19  -2.0513232363979694e-20  -7.2366646371977663e-19  -8.1325150251674490e-19  -6.1756286393877735e-18  -4.3722125726688518e-18  -3.9183749587408634e-18  -1.1722879496708749e-18  -4.9409263220459850e-18  -7.9959859214726489e-18  -5.2101278515879409e-18  -8.7912179307035922e-19  3.8683566527876692e-18  1.7967880846351652e-18  -2.3177374212511426e-18  -1.2933615724747190e-18  -5.3242093500746743e-20  6.8540131570490397e-19  1.3435595529190731e-18  6.9806826703899126e-19  -2.3186724877956761e-19  -2.5560382934025828e-19  -7.5212614190970348e-02  -6.8038994160066299e-02  -6.1384003367044304e-02  -5.5813458865963700e-02  -5.1753249589261092e-02  -4.9129448659528140e-02  -4.7808203586521249e-02  -4.6915691103114152e-02  -4.7590162481373731e-02  -4.9050080559353143e-02  -5.1568079788969948e-02  -5.5443652248360703e-02  -6.1051179483019191e-02  -6.7964803909442290e-02  -7.5207813914207639e-02  -7.7864877208493971e-02  -7.3258498492041940e-02  -6.8020067140335289e-02  -6.3294730024310325e-02  -5.9353871169408740e-02  -5.6659462249359360e-02  -5.4688139765859810e-02  -5.3457947036188946e-02  -5.2746870016049746e-02  -5.2480162443766083e-02  -5.2635397194015228e-02  -5.3378146246169114e-02  -5.4600430482637061e-02  -5.6831788190997157e-02  -5.9753858589618507e-02  -6.3662812380273756e-02  -6.8483283803186940e-02  -7.3849679951361213e-02  -7.8494672932824569e-02  -7.5604989694937882e-02  -6.8918006018664005e-02  -6.2363461099687267e-02  -5.6880832995820557e-02  -5.2964003190473272e-02  -5.0178443254506822e-02  -4.8508647893350562e-02  -4.7853003395144963e-02  -4.8164244950941924e-02  -4.9515096373728106e-02  -5.2259003212722116e-02  -5.6201080087263169e-02  -6.1890555430532762e-02  -6.8577290455398690e-02  -7.5463576038227828e-02  -7.8298929427398856e-02  -7.3435038710589942e-02  -6.8294584454150820e-02  -6.3648311150790976e-02  -5.9967678829705481e-02  -5.7124656781678822e-02  -5.4911090856353859e-02  -5.3669868248753944e-02  -5.2816726494089319e-02  -5.2439050025651995e-02  -5.2635865550326545e-02  -5.3233434357887861e-02  -5.4488883227632123e-02  -5.6454551203463016e-02  -5.9234359990897413e-02  -6.3116485146517187e-02  -6.7875763388792143e-02  -7.3077029924535811e-02  -7.7664645112718964e-02  -1.4689935323533337e-02  -7.3341061638685064e-03  -1.4534195688806463e-02  -7.5746302636362697e-03  -1.3848227963411572e-02  -1.1381673322899811e-02  -1.5276409242187977e-02  -1.0360266257987787e-02  -4.4397159154485420e-03  -5.5531095778917064e-03  -3.1354606061944957e-03  -3.5602743074881144e-03  -3.0053009061843891e-03  -3.2787793841654801e-03  -2.0038987810751467e-02  1.6439023236444218e-03  -1.4224507408973184e-02  -1.6728853756645401e-02  -1.9832003628912596e-03  -2.1893488288534959e-02  -2.7417810013634199e-02  -2.7014588230981563e-02  -2.8974837349342888e-02  -2.7596290122247544e-02  -3.7103734492210612e-02  -3.4386883756880926e-02  -3.8430566228255129e-02  -3.8478774062587567e-02  -2.0938144905748041e-02  4.2273222157588825e-03  1.2043446688170817e-02  2.9987402397178075e-02  3.9349330545074251e-02  5.6515994597306531e-02  6.8013099093642559e-02  8.1026333022756469e-02  4.2480682443709498e-02  9.4537061678692969e-02  1.0293442569071803e-01  7.8810230670459044e-02  9.7540736776826231e-02  7.0663811336705754e-02  8.0501682675297864e-02  1.0474674729566287e-01  8.4788406635883939e-02  1.0100073814207745e-01  7.6513642106894653e-02  8.2010342335044825e-02  5.8374057418106584e-02  5.6966944230204576e-02  7.4575597098276256e-02  9.8126437979912856e-02  8.0558145628042421e-02  9.9746783082696355e-02  7.9786220352509832e-02  9.6036984184106000e-02  7.3872124909574913e-02  8.6435524724637780e-02  6.0286358849951184e-02  7.4929062271169508e-02  9.8577806096907861e-02  7.8108820889917330e-02  9.7737042015502665e-02  5.5401854698535986e-02  5.2181734021285411e-02  3.9363386232389302e-02  4.3218078152333042e-02  5.2722503213386146e-02  3.8974355778587197e-02  5.8998570028604112e-02  8.3582041111902663e-02  1.8182750227939908e-02  3.2463090571767224e-02  4.6703820706275004e-02  4.0696149722385694e-02  5.4375950765085716e-02  8.6139625364426986e-02  5.0726331260891336e-02  7.9247941759801821e-02  1.0680539478882993e-01  9.1916580911933887e-02  6.8276008409376532e-02  7.3921572899330157e-02  1.0282710904221223e-01  7.7999533038154531e-02  5.5093023001903635e-02  5.4708842575961258e-02  6.8970290133847950e-02  3.4245570414522093e-02  2.8531412430336592e-02  1.0420618677371696e-02  9.9106787571021579e-03  1.1466177562792336e-01  2.8004335547076188e-02  3.0559254508906435e-02  2.1427683790761834e-02  3.8353722723834575e-02  7.6919634544681545e-03  4.7061897528110986e-03  1.8529746612879251e-02  4.7476694477001688e-02  2.2236904155513396e-02  1.2149960064005644e-02  3.0318704897270676e-02  5.8531084817075314e-02  3.7441266392715673e-02  3.2079389565632735e-02  5.3910419795184614e-02  3.1580705379967197e-02  1.3915280489249069e-02  7.9748697977528125e-03  1.9114594913642192e-02  1.8702079759310809e-02  3.0519415920013726e-02  6.7736078251251549e-03  5.2387635489500234e-02  1.1848017398880141e-01  1.0566921651131333e-02  1.1879043793056332e-01  7.1726312365026482e-02  4.2735727704398929e-02  6.6794237911443094e-02  4.0310792069589416e-02  1.7932697599684886e-02  1.3610506569598545e-02  3.0630758913596873e-02  5.0865335154715391e-02  3.1656691014149800e-02  2.4916181495007437e-02  1.0645360180202601e-01  -6.9944731491453759e-03  -1.0359553459227048e-02  4.7018944915801011e-02  2.2346905051882714e-02  2.7681689637064737e-02  4.1446800329071387e-02  2.9448771419099143e-02  1.0497835979840239e-02  3.0288259457199984e-02  1.4104616157992403e-02  8.5784654487588378e-03  -3.9663507080212584e-03  -1.6834927088939113e-02  -2.0238711967115380e-02  1.8844482626064880e-02  7.2483375396772628e-04  -3.0058919064231667e-03  -3.3223591583349059e-03  -1.9783490534442467e-02  -2.7222198334063991e-02  -5.7430055130064436e-03  2.1481811796790474e-02  4.5796658699470395e-02  -1.5708868769382416e-02  -9.4688796267317389e-03  -2.7846903545851228e-03  -2.2035037257975745e-02  -1.1201270371181237e-03  -1.3394210195039767e-03  -1.0501483642648137e-02  -2.6896085543463063e-02  -4.7210741387284198e-03  -3.1533710060972411e-03  -1.2834539518160807e-02  9.6764937532917185e-03  -7.6453995911565020e-03  1.3548409863209281e-02  -5.4673350340309146e-03  -1.6884869365810695e-02  -2.9328220209367317e-02  -1.8564711736957094e-02  6.9947621252006388e-03  3.0689135877783647e-02  -6.1451292792364899e-03  -1.0560421886935964e-02  4.8103081753480756e-03  -3.8001136483225034e-02  -3.8187965827772480e-02  -3.7915807816136911e-02  -3.8956140090357298e-02  -6.7859365088646885e-03  1.0817548441653307e-01  1.2193530344274917e-01  1.9782539369356308e-02  -1.1425894707003769e-02  -1.3678851910386760e-02  -6.1560785933986138e-03  -2.8993754602500137e-02  -4.3019257375852089e-03  1.1669563665258420e-03  2.4997000571313044e-02  4.4554918583820907e-02  -2.9308433847351155e-03  4.5329142613736197e-02  1.1645285526900596e-01  1.1536320551104046e-01  8.9854931697031890e-02  1.8437375502469013e-02  1.7232696476008893e-03  2.2101612695489253e-02  1.5765843658159098e-02  2.2703584800860901e-02  -6.5713809764311772e-03  -6.5948664692966228e-03  1.1234000510929824e-01  -9.2616745290323189e-03  1.9199001962946386e-02  1.4300938415471224e-02  5.2573842992696532e-02  2.7140934355649659e-03  4.7676650765472839e-02  8.9373827902258937e-02  -9.6178769607231773e-03  1.2488121777048504e-01  6.3287038426952866e-02  -2.3292140045997708e-02  4.4230281259682570e-02  2.0949813773110022e-02  1.6932879519500486e-02  1.0882119718938615e-01  -7.7489748765201972e-03  8.7550676940421519e-03  2.0511732987354609e-02  1.2702351963339822e-01  1.4379547074313820e-02  2.6739863896079612e-02  1.2218156631616230e-01  5.7365626620301702e-02  2.3126991644797482e-02  1.2679458972338650e-01  4.7613173584317478e-02  9.3407464918583150e-03  4.6026502537728073e-03  3.3714636746406422e-02  5.6681396578717749e-02  2.0758266100049737e-02  -1.0601236278062897e-02  4.5025017152558494e-02  -4.6753551623552235e-02  -4.7356720199784444e-02  -4.6553651132943179e-02  -4.7180342017405667e-02  1.0048842893535142e-02  -9.5192744858067172e-03  8.3040631103666000e-03  -2.0837015463447870e-03  1.7651419657348105e-02  6.1785547701059387e-02  -4.7094409793451706e-03  4.1139860971879261e-03  3.8440572462032641e-02  6.8269886535961166e-02  5.5972331940211860e-02  7.0924128709831002e-02  5.5681982140856640e-03  6.8600228225263946e-02  2.5107723396647331e-02  7.5675073486681066e-02  1.2521521713692599e-01  3.1273346518893262e-02  5.4234363805824998e-02  3.7657692502122593e-02  2.0160878403861271e-02  6.3741218075280229e-02  6.7936087118090543e-02  1.1735005732568270e-01  -1.7121593744524734e-02  -7.9982769026965661e-02  -8.0039408768939960e-02  -8.5559660928865633e-02  -9.6144468255790483e-02  -8.6178480346551081e-02  -9.7319729464906690e-02  -8.0155299588143950e-02  -8.5189572690870574e-02  -8.0087238463546151e-02  -8.5617467768164701e-02  -9.6814648976896830e-02  -9.6301822418102298e-02  -5.7313843878851412e-02  -5.0447168686075523e-02  -6.1271409192086047e-02  -5.2164141112619147e-02  -7.1289864771661007e-02  -8.7359470458978669e-02  -8.8229529635526924e-02  -7.2019341116372648e-02  -1.0134429038367049e-01  -1.0900044991547332e-01  -7.3899596180484237e-02  -7.3015643445234257e-02  -9.3635682979352708e-02  -1.1154565890425423e-01  -1.2025111724814103e-01  -1.2021518130108461e-01  -1.2943702730370873e-01  -1.3058769770333761e-01  -4.5901721529940591e-02  -4.4652776164527348e-02  -4.6425008375559601e-02  -4.3790761877724238e-02  -5.0582543281912376e-02  -4.9206427256216552e-02  -5.1428935967676774e-02  -1.3665966283027495e-01  -1.3775339451614993e-01  -1.2061119851448482e-01  -1.1246532494624953e-01  -3.2742960306198839e-02  -4.2858664009975872e-02  -4.1502510581987083e-02  -2.8991811055381213e-02  -2.8888609253703072e-02  -2.6769365446164203e-02  -4.1482315731703294e-02  -4.6041109327640647e-02  -1.1861886440637069e-01  -1.1097021200844608e-01  -5.2156572326204083e-02  -4.6725331767302876e-02  -5.3199842065004978e-02  -1.0484018574670288e-01  -1.0914219791765800e-01  -1.1732333657066873e-01  -1.2275494835568591e-01  -1.2951054135839243e-01  -1.3286315808671420e-01  -1.2567143094467220e-01  -1.3764898775580781e-01  -1.3554776071046565e-01  -1.3701169095164104e-01  -1.0480607328342348e-01  -1.0977677596605431e-01  -1.1746535638652261e-01  -1.2295994939206556e-01  -1.1736439991584782e-01  -1.2959529613513260e-01  -1.3295582278702500e-01  -1.3762218707972187e-01  -1.3546675894158441e-01  -1.3727559216773436e-01  -8.0865224954228668e-02  -1.0154809468947341e-01  -1.0921911828083196e-01  -1.1183124491486360e-01  -1.2055347545150044e-01  -1.2042442813819910e-01  -1.2952955695412607e-01  -1.3072649461802757e-01  -1.3663233510951955e-01  -1.3831359297163212e-01  -7.0403342708346792e-02  -6.9947031146391156e-02  -7.6862691925181637e-02  -7.8024971290017772e-02  -1.2797059910859726e-01  -1.3912075688663356e-01  -1.3756667113271845e-01  -1.3903981493750045e-01  -1.3938444359194749e-01  -1.3757644035923983e-01  -5.3239887982386207e-02  -1.3951203519373170e-01  -1.3786499170299452e-01  -1.3899721003111148e-01  -1.3962627955357573e-01  -1.3809087972766784e-01  -1.3331677144336049e-01  -8.1068397118867125e-02  -1.3429064304866684e-01  -1.3505003755982134e-01  -4.7106277379751101e-02  -4.3729802498960690e-02  -4.6404541324438324e-02  -1.3434861290595743e-01  -1.3472852894811574e-01  -1.0976365673772029e-01  -1.0212535298143099e-01  -1.3674601190020197e-01  -1.3621216393688015e-01  -1.3659639404936386e-01  -1.3618644644847630e-01  -1.3239119563398957e-01  -1.3410215974082629e-01  -1.2865238532897991e-01  -1.2956130964747284e-01  -1.2439323022581027e-01  -1.2469389469929351e-01  -1.3316220755485964e-01  -1.3394080031224651e-01  -1.2904664858505258e-01  -1.2939864637830342e-01  -1.2448119003843215e-01  -1.2499564838609364e-01  -1.2016305067647254e-01  -1.2127443970432014e-01  -1.1638643666341605e-01  -1.1863623569101764e-01  -1.1414303774122446e-01  -1.1760631676749080e-01  -1.1344517164472276e-01  -1.1816462598091583e-01  -1.1975143757944072e-01  -1.2090213282971964e-01  -1.1584635742724800e-01  -1.1829810051441084e-01  -1.1358415515423091e-01  -1.1733450794397712e-01  -1.1283594960325689e-01  -1.1792338898213478e-01  -1.3393880112163678e-01  -1.3207690924689505e-01  -1.1985668218440303e-01  -1.1989921743359887e-01  -1.3379046401578149e-01  -1.3139126027893316e-01  -1.1455448827007028e-01  -1.2027697502076283e-01  -1.1673551902791386e-01  -1.2342563095887243e-01  -1.1992948704742608e-01  -1.1396312058030822e-01  -1.2002588053780004e-01  -1.1613223693679452e-01  -1.2330950073210552e-01  -1.1949629591731122e-01  -1.3266281191098692e-01  -1.3161873228074625e-01  -1.2526801473930349e-01  -1.1773603779900416e-01  -1.2174330811293929e-01  -1.1756824410250076e-01  -1.2135729726579356e-01  -1.1228725256504928e-01  -1.1959464972407366e-01  -1.1287997117448065e-01  -1.2092975230715076e-01  -1.1404350252272170e-01  -1.0102050988564612e-01  -1.1404640575375130e-01  -1.2892337588751004e-01  -1.2259905589028636e-01  -1.2122686243729355e-01  -1.0025834200201755e-01  -1.2966496080721343e-01  -1.2100643677530655e-01  -1.1967224232818545e-01  -1.2021509553360207e-01  -1.2013427276550701e-01  -9.2107944603358041e-02  -9.8507909251975806e-02  -8.4252509964006350e-02  -9.5784230557522290e-02  -1.1597345142450358e-01  -1.2372941008284413e-01  -9.7385443078630021e-02  -1.2994778552404285e-01  -3.9460666337968013e-02  -1.0372411223874596e-01  -1.3144198802961349e-01  -1.0854548376054830e-01  -7.8525944178669260e-02  -8.7736900227257122e-02  -1.0910343035930486e-01  -1.1241170908730408e-01  -1.1248474799140518e-01  -1.0410151823270807e-01  -1.1314448758325790e-01  -1.0597427096749618e-01  -1.1229894140790185e-01  -1.0471027270330852e-01  -1.0515212599599302e-01  -9.7103139671943825e-02  -1.1473830697464056e-01  -9.6601244193535302e-02  -9.0435498400010111e-02  -8.9606119082298707e-02  -8.5263245470293972e-02  -8.5531314563677574e-02  -8.2511427883401781e-02  -8.3560190730361916e-02  -1.1741817157533677e-01  -1.2232144536245892e-01  -1.1509993960198962e-01  -1.2324346983457111e-01  -9.2341691227571437e-02  -8.7409534140590384e-02  -9.9278082139124257e-02  -8.3327106883530191e-02  -1.1685222346248801e-01  -1.1869938140051491e-01  -7.3954044826342838e-02  -3.5980781755958362e-02  -4.2149831922676614e-02  -3.9228205106800237e-02  -1.0607843928286081e-01  -9.9752804107369628e-02  -1.2475906798227471e-01  -1.1529353624060942e-01  -1.1520947343553938e-01  -1.0003285110402670e-01  -1.0422338203760692e-01  -1.0245078326055686e-01  -1.0120939406606158e-01  -1.0386229749367348e-01  -1.0783306931609292e-01  -1.0029909394550510e-01  -9.0522342761542876e-02  -9.1349255628272827e-02  -9.1688080697127722e-02  -8.7240568524180370e-02  -8.3521965234477621e-02  -8.3946275429779477e-02  -7.5553106604764844e-02  -8.0958964892102359e-02  -8.1931881986237395e-02  -8.3044455031335937e-02  -7.9224747332984388e-02  -8.5971491675582490e-02  -7.8926037906310087e-02  -8.9667094499012362e-02  -8.9041744670822723e-02  -9.5483766087478522e-02  -9.4378565017302893e-02  -1.0363810132634699e-01  -9.8702157599917573e-02  -1.1358939161204318e-01  -1.0136997208007298e-01  -1.1776225490938981e-01  -1.0703026244327263e-01  -1.1273038870719820e-01  -1.0517683406387006e-01  -1.3045422681295188e-01  -1.1987350161662109e-01  -8.1625255766412871e-02  -9.3787398876985228e-02  -1.0657904162075300e-01  -1.0479686248300286e-01  -1.1834038151892746e-01  -8.3340370544935760e-02  -1.2681145862759879e-01  -7.3665708011070516e-02  -9.5607170039409273e-02  -8.8269611579965990e-02  -1.0827623374577951e-01  -9.6357743950323760e-02  -1.1681033725602953e-01  -8.0722802167039323e-02  -1.0307455406021533e-01  -1.0590418751564289e-01  -9.5187936372055401e-02  -9.2124737437922516e-02  -1.0803449909775625e-01  -8.5455270550805651e-02  -8.1909753801336901e-02  -9.0494543447110748e-02  -9.6859232125738812e-02 