<?xml version="1.0"?>
<VTKFile type="UnstructuredGrid"  version="0.1"  >
<UnstructuredGrid>
<Piece  NumberOfPoints="1297" NumberOfCells="2496">
<Points>
<DataArray  type="Float64"  NumberOfComponents="3"  format="ascii">0 0 0  0 1 0  1 1 0  1 0 0  1.1 -0.1 0  -0.1 -0.1 0  1.1 1.1 0  -0.1 1.1 0  0.2475934744455854 0.6924794294738386 0  0.2460986846125669 0.3088091862231567 0  0.7531014057313905 0.3083883464220547 0  0.7539217634437573 0.6910783801666891 0  0.5000199323447213 0.5002587595324532 0  0 0.9499999999997918 0  0 0.8999999999995836 0  0 0.8499999999996529 0  0 0.7999999999999998 0  0 0.7500000000003466 0  0 0.7000000000006934 0  0 0.6500000000010401 0  0 0.6000000000013869 0  0 0.5500000000017335 0  0 0.5000000000020587 0  0 0.4500000000018723 0  0 0.4000000000016644 0  0 0.3500000000014564 0  0 0.3000000000012483 0  0 0.2500000000010403 0  0 0.2000000000008322 0  0 0.1500000000006241 0  0 0.100000000000416 0  0 0.05000000000020799 0  0.04999999999989965 0 0  0.09999999999981467 0 0  0.1499999999997036 0 0  0.1999999999995579 0 0  0.2499999999994121 0 0  0.2999999999992664 0 0  0.3499999999991206 0 0  0.3999999999989749 0 0  0.4499999999988292 0 0  0.4999999999986943 0 0  0.5499999999988151 0 0  0.5999999999989468 0 0  0.6499999999990784 0 0  0.69999999999921 0 0  0.7499999999993417 0 0  0.7999999999994734 0 0  0.8499999999996051 0 0  0.8999999999997368 0 0  0.9499999999998684 0 0  1 0.04999999999989965 0  1 0.09999999999981467 0  1 0.1499999999997036 0  1 0.1999999999995579 0  1 0.2499999999994121 0  1 0.2999999999992664 0  1 0.3499999999991206 0  1 0.3999999999989749 0  1 0.4499999999988292 0  1 0.4999999999986943 0  1 0.5499999999988151 0  1 0.5999999999989468 0  1 0.6499999999990784 0  1 0.69999999999921 0  1 0.7499999999993417 0  1 0.7999999999994734 0  1 0.8499999999996051 0  1 0.8999999999997368 0  1 0.9499999999998684 0  0.9499999999997918 1 0  0.8999999999995836 1 0  0.8499999999996529 1 0  0.7999999999999998 1 0  0.7500000000003466 1 0  0.7000000000006934 1 0  0.6500000000010401 1 0  0.6000000000013869 1 0  0.5500000000017335 1 0  0.5000000000020587 1 0  0.4500000000018723 1 0  0.4000000000016644 1 0  0.3500000000014564 1 0  0.3000000000012483 1 0  0.2500000000010403 1 0  0.2000000000008322 1 0  0.1500000000006241 1 0  0.100000000000416 1 0  0.05000000000020799 1 0  -0.1 1.05000000000004 0  -0.1 1.000000000000079 0  -0.1 0.9500000000001624 0  -0.1 0.9000000000003032 0  -0.1 0.850000000000444 0  -0.1 0.8000000000005848 0  -0.1 0.7500000000007256 0  -0.1 0.7000000000008665 0  -0.1 0.6500000000010508 0  -0.1 0.6000000000012352 0  -0.1 0.5500000000014196 0  -0.1 0.500000000001539 0  -0.1 0.4500000000014195 0  -0.1 0.4000000000013 0  -0.1 0.3500000000011588 0  -0.1 0.3000000000010178 0  -0.1 0.2500000000008986 0  -0.1 0.2000000000007579 0  -0.1 0.1500000000006174 0  -0.1 0.1000000000005272 0  -0.1 0.05000000000040083 0  -0.1 2.671196597248127e-13 0  -0.1 -0.0499999999998666 0  -0.0500000000000906 -0.1 0  -1.730560139634463e-13 -0.1 0  0.04999999999975802 -0.1 0  0.09999999999961506 -0.1 0  0.1499999999994613 -0.1 0  0.199999999999302 -0.1 0  0.2499999999991446 -0.1 0  0.2999999999990088 -0.1 0  0.3499999999988296 -0.1 0  0.3999999999986936 -0.1 0  0.4499999999985143 -0.1 0  0.4999999999984002 -0.1 0  0.5499999999985247 -0.1 0  0.5999999999986493 -0.1 0  0.6499999999987955 -0.1 0  0.6999999999989417 -0.1 0  0.7499999999990659 -0.1 0  0.7999999999992116 -0.1 0  0.8499999999993573 -0.1 0  0.8999999999994526 -0.1 0  0.949999999999584 -0.1 0  0.9999999999997226 -0.1 0  1.049999999999861 -0.1 0  1.1 -0.0500000000000906 0  1.1 -1.730560139634463e-13 0  1.1 0.04999999999975802 0  1.1 0.09999999999961506 0  1.1 0.1499999999994613 0  1.1 0.199999999999302 0  1.1 0.2499999999991446 0  1.1 0.2999999999990088 0  1.1 0.3499999999988296 0  1.1 0.3999999999986936 0  1.1 0.4499999999985143 0  1.1 0.4999999999984002 0  1.1 0.5499999999985247 0  1.1 0.5999999999986493 0  1.1 0.6499999999987955 0  1.1 0.6999999999989417 0  1.1 0.7499999999990659 0  1.1 0.7999999999992116 0  1.1 0.8499999999993573 0  1.1 0.8999999999994526 0  1.1 0.949999999999584 0  1.1 0.9999999999997226 0  1.1 1.049999999999861 0  1.05000000000004 1.1 0  1.000000000000079 1.1 0  0.9500000000001624 1.1 0  0.9000000000003032 1.1 0  0.850000000000444 1.1 0  0.8000000000005848 1.1 0  0.7500000000007256 1.1 0  0.7000000000008665 1.1 0  0.6500000000010508 1.1 0  0.6000000000012352 1.1 0  0.5500000000014196 1.1 0  0.500000000001539 1.1 0  0.4500000000014195 1.1 0  0.4000000000013 1.1 0  0.3500000000011588 1.1 0  0.3000000000010178 1.1 0  0.2500000000008986 1.1 0  0.2000000000007579 1.1 0  0.1500000000006174 1.1 0  0.1000000000005272 1.1 0  0.05000000000040083 1.1 0  2.671196597248127e-13 1.1 0  -0.0499999999998666 1.1 0  0.2377993370620145 0.6707533262864686 0  0.2311417567544222 0.6462175262787453 0  0.2253309416646338 0.6212163850856445 0  0.2205763155825518 0.5964084869629254 0  0.2167550788523236 0.5721007132188373 0  0.2136512868156749 0.548215015267884 0  0.2114940829451174 0.5244853212496041 0  0.2110467373171346 0.5008028427431901 0  0.211482967131767 0.4771419788149909 0  0.21328437137324 0.4532671864573926 0  0.2161038436261378 0.4292903244895469 0  0.219829371255593 0.4051124007476036 0  0.2242666429613904 0.3804868326721937 0  0.2298272473781288 0.3554046974873603 0  0.2362751842919845 0.3307437302883414 0  0.268926332178794 0.3013599012691328 0  0.2943413040984386 0.2964441300458158 0  0.320480105807305 0.2921447969305168 0  0.3466671433499359 0.2882488548770152 0  0.3726632835922769 0.2849138225724611 0  0.398363087340867 0.2819676970670787 0  0.4238121798899235 0.2794918040524315 0  0.4491529083059297 0.2774534634261364 0  0.4744796580737368 0.2763694838823579 0  0.4997103422835315 0.2760002434329522 0  0.5249363484642569 0.2764604689121748 0  0.5502094219007814 0.2776581075777959 0  0.5756188980266888 0.2794211564387691 0  0.6011187384394353 0.2819826657856292 0  0.6269532976409625 0.2848216862733957 0  0.6530065135302083 0.2881095879589572 0  0.6791099896383974 0.291908069097692 0  0.7050975396139998 0.2961332698126378 0  0.7303534784765241 0.3009072421189335 0  0.7625550978555017 0.3302125334297749 0  0.7694309731776917 0.3545268418865384 0  0.7751916726901474 0.3795128086664875 0  0.7798332143928702 0.4042211107438174 0  0.7836296950198762 0.4284637263390564 0  0.7864732916450985 0.4524059008546394 0  0.7881166425739116 0.4760914391432787 0  0.7884872445826485 0.499529891924107 0  0.7876675950286193 0.5229284800859892 0  0.7858952420879887 0.5464082911435253 0  0.7833394241346981 0.5702828005893633 0  0.7797420337115971 0.5944496616837353 0  0.7755898261993271 0.6194228320869877 0  0.7700606989852331 0.6445598480836634 0  0.7634655741475306 0.6691295748673028 0  0.7311393753362881 0.6986770130880988 0  0.705834101244068 0.7034381289698105 0  0.6799893342412787 0.7079109614296094 0  0.6538836343032567 0.7120028348014428 0  0.6278362483367491 0.7156105265984942 0  0.601921889345746 0.7186536940577862 0  0.5764066993625324 0.7213032803671482 0  0.5510419747160059 0.7231192129882057 0  0.5258308663895297 0.7242701527351632 0  0.5007083396299575 0.7246512834076484 0  0.4755608018320953 0.7243371104322645 0  0.4503368474428306 0.7231564176474167 0  0.425074794944512 0.7212092760332192 0  0.3995573364953343 0.7188437548962482 0  0.3737390282603794 0.7159910894838082 0  0.3477805077115232 0.7126304329839084 0  0.321643426269582 0.7088441346133642 0  0.2955869553686975 0.7045995028615865 0  0.2703069196770984 0.6997897545118453 0  0.3578109558643806 0.3109968892618961 0  0.2415543321187135 0.4403481415739691 0  0.3588684055910176 0.6898987517516153 0  0.2420575947329082 0.5610435144937579 0  0.7570815922290351 0.583350141733004 0  0.6162350906157965 0.6935878066325994 0  0.6406108708282457 0.3102554445280951 0  0.7599557984057438 0.4387448163731341 0  0.7615625043535922 0.5108380132003858 0  0.5629827499391817 0.3017568460614763 0  0.4366962095235654 0.3038473485875999 0  0.4362947022292979 0.6972270213992358 0  0.5388889603044295 0.699127735392385 0  0.2385942272098551 0.4886628539385685 0  0.2459442800738393 0.3912224329388058 0  0.4871191777293606 0.3040276588239932 0  0.2535390525356919 0.608508087272275 0  0.746631876212528 0.3881732051334457 0  0.487899588189359 0.6998073035246068 0  0.6688895520536157 0.6862462996633397 0  0.3042423751821186 0.320361007133831 0  0.6956531537917142 0.3215078233133564 0  0.3064022689973053 0.6831170052031269 0  0.746343325305254 0.635153231869237 0  0.2572767078988019 0.3417292227538604 0  0.2613265900177111 0.6580808299345039 0  0.7212183350436172 0.6780311029231645 0  0.7427340371531798 0.3405855519917368 0  0.332606086224173 0.6866719372836588 0  0.3440074575168357 0.6647541974003432 0  0.3702227763711871 0.6671580500314956 0  0.354860671741091 0.6421063708581087 0  0.3823079345910462 0.6439987193956652 0  0.365795962747511 0.6164787241219869 0  0.3986975891007642 0.6181599104033771 0  0.379065771293366 0.5855733452549963 0  0.3331188871306251 0.6138368552449996 0  0.4191535998973082 0.5863969081359237 0  0.395250155155367 0.5494598330241709 0  0.3480292303000757 0.5546857281547494 0  0.3677667449142192 0.5149297986178959 0  0.3227475065737193 0.5170610818391543 0  0.3383257610871357 0.4819647477678868 0  0.385554030378589 0.4763764715317451 0  0.3606980758254038 0.4431869565216007 0  0.4034651793411736 0.4373245266557168 0  0.3800874797420836 0.4058157405132844 0  0.4191044621119612 0.3933094731211905 0  0.339470857881531 0.407906238405732 0  0.3913541382610603 0.3718696807491597 0  0.4304637566338658 0.6208541292886204 0  0.4598798068932795 0.5947963221504979 0  0.4815248014173644 0.621833038129924 0  0.5027958435868677 0.5965239783771098 0  0.5232172883384915 0.6219679825182296 0  0.5446691997445092 0.596779981396121 0  0.5644776661751304 0.6222944855155309 0  0.5861153019703725 0.5973417971161001 0  0.6063503307083158 0.6252751648910074 0  0.6274801424224371 0.5908152273793138 0  0.6089734109714319 
[...]
<PointData  Scalars="u"> 
<DataArray  type="Float64"  Name="u"  format="ascii">-1.4882718548607167e-18  -4.6537832774745092e-18  -1.3978384753942659e-18  -8.1625000078413659e-19  1.3385444638517816e-20  5.8552250105501073e-20  8.3129055510884834e-20  2.6315261502682210e-19  -8.5524675519781684e-02  -8.5701579534723016e-02  -8.5844139675861894e-02  -8.5596059308390135e-02  1.3053139643198861e-01  -3.5935399285068133e-18  -4.1819356704779943e-18  -5.8024790878675562e-18  -1.8934604770702796e-17  -7.4224914447883185e-19  -2.6578779951300217e-17  -8.7408679893448862e-18  -2.3469740615105656e-17  6.5977666836984520e-18  -2.8438446548516789e-17  -4.1078369766596277e-17  2.1910077144283922e-17  -7.8610961479569080e-18  -1.6131084828250743e-17  1.6963148177675721e-17  -2.3438714275468340e-17  9.1066417446005273e-18  -3.8389224971344923e-19  -5.4930792706279286e-18  4.7353146955714185e-18  1.5353592674510176e-18  -8.6438438148858864e-18  -2.5125776574076553e-17  -6.1436506457194636e-18  5.7006809619557702e-19  -2.0106264626033754e-17  -2.1466580591642252e-17  6.6698183974803370e-18  -1.9447152015992088e-17  1.6025218048890359e-18  3.6224961685885944e-17  -1.5295111211962217e-17  -2.7063962942542752e-18  -1.7569003995632971e-17  -3.3164689368605641e-17  -1.3115345877369268e-17  1.9056872564350084e-17  1.6223848956773295e-17  -1.7983939445957747e-17  -3.0371243914409502e-17  -2.2662406393579987e-17  -7.3416943758331907e-18  -1.9258365537984466e-17  -8.8680619739457638e-18  5.9527841754149995e-18  -4.8400281823125605e-18  -1.1738761385719163e-17  -3.7152789457197045e-18  -1.0597947722802414e-17  -1.2355027657040391e-17  -3.4233906746958962e-18  -1.7330663757864413e-17  -1.6533777059462244e-17  -6.7615130342476409e-18  1.7530264064727890e-18  -2.8595343701245104e-17  -9.9518020522996379e-19  -7.9277869799387644e-19  -4.5979123388940559e-18  -1.6596789605621541e-17  -7.4918915768766458e-18  -2.5207486133234609e-17  -1.5283503648103265e-17  -1.4802138825978856e-17  -2.2147322728576729e-17  -4.9330433399608626e-17  -4.3827447984631285e-17  -9.8084391636145746e-18  2.1130706697655588e-17  6.1021233167929375e-18  -1.8264104159810338e-17  4.7183515465081292e-19  -1.5626022398456799e-18  1.5635628665318279e-17  3.8694787459451241e-18  1.2756551752648777e-17  -1.0577605004829878e-19  -3.7324166540137521e-19  -9.8426037541994510e-19  -1.5329901863357167e-18  -1.7157827437905780e-18  -3.5921804435627398e-19  -1.2964122024118787e-18  -2.4306146043639287e-18  -2.6646587355076417e-18  -1.7896083512848776e-18  -2.1426891160339795e-19  -4.2046009104241927e-18  -5.3504966370567679e-18  1.5256428639762735e-18  -3.6953449811866487e-19  -1.8168014852496187e-18  1.8918952998066484e-19  -1.4708559422104801e-18  -1.7529800672690649e-19  5.1664926471597807e-19  -8.3379002261701820e-19  -2.7857169033044324e-19  4.5926996979121195e-20  -9.6023902076211173e-20  -1.0655182046879025e-19  4.8310693027317287e-19  3.8552041623519718e-19  -1.6611150759590966e-18  -2.7629511052433893e-18  -9.7328356737933012e-19  -1.5359639604031078e-18  -2.8005132966054419e-18  -2.2911048999701295e-18  -4.2806588575140291e-19  -1.6497922977061911e-18  1.1690754977717268e-18  2.5064356704032609e-18  -1.5145040132746035e-19  -1.4755314743693358e-18  -2.2887914865046946e-18  -4.9786731244175639e-18  -2.0466312784956967e-18  2.8754921868309867e-18  2.7287462649646291e-18  -1.2653550090306466e-19  -1.4856321606101030e-19  2.0318984173579723e-19  -3.2555270017245471e-19  -2.4502321832898334e-18  -4.6933932846726037e-18  -3.1892382180692133e-18  -1.5280475279433528e-18  -2.4496961989975764e-18  -1.0259584857948263e-18  8.4685341748214898e-19  3.1068940068683983e-19  -1.8532621596853533e-18  -7.2929813886393631e-19  -1.4608757250978092e-18  -1.5455989101790578e-18  -1.1083919978723555e-18  -1.5005318870402103e-18  -2.2698983188024327e-18  -5.9862919910132362e-19  -8.1322345426140688e-19  -2.7428483215964785e-18  -1.0934402551614789e-18  2.2907393293043289e-19  -1.3331081702751650e-19  -3.4590413659287911e-20  -1.4871688933895172e-19  -9.1794666075641187e-20  -8.4947194042441071e-19  -1.1436861394668090e-18  -4.9133722833409647e-18  -3.0332588498384896e-18  -2.5983272419895540e-18  -1.0581750823948232e-18  -6.0947456434052056e-18  -8.7492577915513580e-18  -5.4921888329563682e-18  -1.5432860072524262e-18  3.0241572727594211e-18  1.1331997405131950e-18  -2.6557407951836009e-18  -9.5497143301447286e-19  -3.9134630515939026e-20  7.9139324392244024e-19  1.6356456870017070e-18  9.2747730808179603e-19  -1.4901547301730322e-19  -3.0442496238140148e-19  -7.8497565657786650e-02  -6.9193221926732523e-02  -6.0909398399264555e-02  -5.4127349729898667e-02  -4.9231934325517840e-02  -4.5939548909750681e-02  -4.4212108021025612e-02  -4.3338591713841419e-02  -4.4086364406450661e-02  -4.5986333865652602e-02  -4.9193922358936867e-02  -5.3961256205002195e-02  -6.0719212572248320e-02  -6.9160206688828052e-02  -7.8541228511354033e-02  -8.2403543637896468e-02  -7.5947419964700627e-02  -6.9149010677118303e-02  -6.3210752195723807e-02  -5.8236948092132437e-02  -5.4512008361751352e-02  -5.1704205058254515e-02  -4.9833112879521899e-02  -4.8739963964283324e-02  -4.8338252575983370e-02  -4.8613177761672885e-02  -4.9726795065509158e-02  -5.1500337407826627e-02  -5.4557930162674940e-02  -5.8390768246337141e-02  -6.3294903533528693e-02  -6.9264355505070305e-02  -7.6133019783753281e-02  -8.2589412695137393e-02  -7.8559053748376698e-02  -6.9519925758757387e-02  -6.1236311863424125e-02  -5.4487878012140487e-02  -4.9650875503579758e-02  -4.6251542930080325e-02  -4.4233934196158120e-02  -4.3502420017929651e-02  -4.3958910451760452e-02  -4.5707860074711559e-02  -4.9124475898755064e-02  -5.3913692322688000e-02  -6.0829731040149645e-02  -6.9185763519249821e-02  -7.8352505203269293e-02  -8.2337816768502978e-02  -7.5741137925281532e-02  -6.9015472365569680e-02  -6.3099299811431378e-02  -5.8352185067843801e-02  -5.4543256198789199e-02  -5.1479421972865584e-02  -4.9671652547520526e-02  -4.8469480875263676e-02  -4.8017116556076600e-02  -4.8400895279157828e-02  -4.9438925130228115e-02  -5.1367521135126201e-02  -5.4180718847943954e-02  -5.7931239667917495e-02  -6.2878029364638405e-02  -6.8888848034161704e-02  -7.5676423523236808e-02  -8.2185468322374597e-02  -1.4750474790985377e-02  -5.1913631773864025e-03  -1.4443344693609901e-02  -5.3005778066963728e-03  -1.1801775341818591e-02  -9.9097540851738174e-03  -1.4997047110997593e-02  -7.3053314915268626e-03  -5.9757057036749928e-04  -2.6876612466163936e-03  -4.3806808612834860e-04  -7.4101341326344192e-04  5.6897309294865926e-04  -1.1393410404122402e-04  -1.9945272735737572e-02  4.9996718322054502e-03  -1.4074292103805695e-02  -1.6288764762951061e-02  1.7486205680651901e-03  -2.2662304269670974e-02  -3.0427378399394397e-02  -2.9638119384167504e-02  -3.1776376358768156e-02  -2.9128107650940215e-02  -4.1349276086613297e-02  -3.8570592435894703e-02  -4.2780807956521748e-02  -4.2345135709819834e-02  -2.1986907062966066e-02  3.5824409724697923e-03  1.2130686061215002e-02  2.9452162262816158e-02  3.9392212160862201e-02  5.6241454595691111e-02  6.8208786479179814e-02  8.1032029548156206e-02  4.1996195646690382e-02  9.4723365279916247e-02  1.0301724747924346e-01  7.9096246485220609e-02  9.7773297760239034e-02  7.1513042421449513e-02  8.1076706986397781e-02  1.0486030433090580e-01  8.4896423886062250e-02  1.0099675095789733e-01  7.6431112902553056e-02  8.2271284611618214e-02  5.7975697608981309e-02  5.6950063504802251e-02  7.5142632411197494e-02  9.8583978656595656e-02  8.1530488442180152e-02  1.0032625668554486e-01  8.0882739043156626e-02  9.6638685889649120e-02  7.4721617587864761e-02  8.6962636696624837e-02  6.0714406714904752e-02  7.5266224693388020e-02  9.8983517348255709e-02  7.8788437739890332e-02  9.8352901114669974e-02  5.5560217243874693e-02  5.3147498867156452e-02  4.0398383271923494e-02  4.4755114992397441e-02  5.3399730684701323e-02  4.0205940018802698e-02  5.9514303318356498e-02  8.4222531924890529e-02  1.9067455341615538e-02  3.3353944942077704e-02  4.8415997646874681e-02  4.2440285123093946e-02  5.5414095519302931e-02  8.6913376986035920e-02  5.1977266353279448e-02  8.0061135670289607e-02  1.0709368038160340e-01  9.2390112093067425e-02  6.8855103887569699e-02  7.4305376293247891e-02  1.0311831798586868e-01  7.8327446929496128e-02  5.5054384698085844e-02  5.4759181312733024e-02  6.9708790601182680e-02  3.4188918897569996e-02  2.8869754034710236e-02  9.6806900289291443e-03  9.1779469271503628e-03  1.1501241005652052e-01  2.8538862836435794e-02  3.0680563671572524e-02  2.3039498324181763e-02  4.0004101367220241e-02  7.7362820348839964e-03  3.3525863314276174e-03  1.8171028074004048e-02  4.8734003610642694e-02  2.4685342661589827e-02  1.4749891397452764e-02  3.2075508097815439e-02  5.9017836771198873e-02  3.7210226645363963e-02  3.1657592226627049e-02  5.4780381778136503e-02  3.2667677807596537e-02  1.3671501684886756e-02  6.3015267568702913e-03  1.8267972413553289e-02  2.0309172045682954e-02  3.0957102052630466e-02  9.4229156082326522e-03  5.2392271899168667e-02  1.1864400131901671e-01  1.1168082629304157e-02  1.1879119504687992e-01  7.3018940999239695e-02  4.4524704650913204e-02  6.8258279666025198e-02  4.2059697932950529e-02  2.0840000765378220e-02  1.6456889367600216e-02  3.2159848332140986e-02  5.0434312520255299e-02  3.1584883939714696e-02  2.6782581252466374e-02  1.0691679528831412e-01  -9.0843922995045359e-03  -1.2002176532958583e-02  4.6920956584409257e-02  2.2299523168540055e-02  2.7402725352694963e-02  4.1687465409590570e-02  3.0561693896694542e-02  1.0780721921111689e-02  3.0161739502463841e-02  1.3073314363141141e-02  9.0428070603552433e-03  -6.0077840869747689e-03  -2.0215393140438701e-02  -2.1396443618984753e-02  2.1124685957186227e-02  3.3010976452520699e-03  4.2187358386035440e-04  -5.3047496942373873e-03  -2.3238056334723527e-02  -2.9202821905335866e-02  -3.7011964527486271e-03  2.3048007763915145e-02  4.6270020057177862e-02  -1.5159514933774357e-02  -8.3255187829890161e-03  -7.6976860498715206e-04  -2.2758629292884622e-02  7.2046727865992068e-04  1.8486314441345003e-03  -9.4925038106789435e-03  -2.8696362691305492e-02  -6.1835382339270918e-03  6.9056819774863411e-04  -1.0800381019645791e-02  1.1364564982134093e-02  -5.2592981022777955e-03  1.4858332203571299e-02  -2.3406771628974050e-03  -1.6460298123465500e-02  -3.1871544838962686e-02  -2.1579959549537266e-02  7.8591139088157857e-03  3.2852248338174100e-02  -7.7095444410507155e-03  -9.3130449648500292e-03  4.0707269899227985e-03  -4.2783373327833323e-02  -4.2889309312182745e-02  -4.1711576880368396e-02  -4.3324753376904196e-02  -3.9460763086197493e-03  1.0823289756090772e-01  1.2210235257376059e-01  2.2473574613272353e-02  -9.9483886669477235e-03  -1.2384035387241794e-02  -7.4780578226216286e-03  -3.0544984798132845e-02  -9.6769933387264116e-04  8.7319870567946218e-04  2.7598936942756318e-02  4.5157893432580143e-02  6.2636057638553464e-04  4.6436568211546674e-02  1.1651449270893777e-01  1.1542052675579761e-01  9.0427170042474248e-02  1.7703257001928395e-02  1.3350289284517105e-03  2.4711288180816891e-02  1.6467118695857968e-02  2.4827730852082973e-02  -3.2605158562295003e-03  -2.6582261770417767e-03  1.1261640017356923e-01  -1.0631061904494317e-02  2.1680273288682241e-02  1.5234207812169571e-02  5.3043717731162905e-02  3.7772990495368122e-03  4.8664047618092260e-02  9.0155145846683937e-02  -5.8864298558354558e-03  1.2488943045480233e-01  6.3086344010970075e-02  -2.6545297448874277e-02  4.5278962529875663e-02  2.3112868052009187e-02  1.8952766077472937e-02  1.0901937416172955e-01  -4.8256246318551244e-03  8.7443850189023332e-03  2.3378608426479871e-02  1.2715038238844675e-01  1.5684680377097960e-02  2.6107475440613565e-02  1.2227208209770417e-01  5.8591982775652023e-02  2.5448518116892693e-02  1.2677846644077967e-01  4.9065903947351885e-02  1.0591992533706690e-02  5.1396580093193917e-03  3.4145938538111195e-02  5.7881629932523798e-02  2.2424537844865037e-02  -6.8756845922560003e-03  4.6252339610942057e-02  -5.2838013895301260e-02  -5.2999783425822233e-02  -5.2667056215656656e-02  -5.2781882713013546e-02  9.7130033799748289e-03  -1.1050279288816446e-02  1.0858795252881217e-02  -1.8744146745686273e-03  1.9493314144301846e-02  6.2447497438851550e-02  -7.0988834905253628e-03  3.8997403256261910e-03  3.7739216137278583e-02  6.9224047279470471e-02  5.6787309573121288e-02  7.1974637905270339e-02  7.2484017652772554e-03  6.9448407398698203e-02  2.5858964674790558e-02  7.6660458236306461e-02  1.2527746903570344e-01  3.1802425984602756e-02  5.4533958942121041e-02  3.7994657502419281e-02  2.2788721271294728e-02  6.4768361433816674e-02  6.8642965684672458e-02  1.1761974743159666e-01  -1.9894790920813345e-02  -7.6390908545185487e-02  -7.6643051859508107e-02  -8.3799144476437284e-02  -9.7252928913528131e-02  -8.4214891385581206e-02  -9.8067880625570494e-02  -7.6939254527863571e-02  -8.3635212276885806e-02  -7.6837195558650151e-02  -8.3936387254110068e-02  -9.7661401375195009e-02  -9.7569389358943881e-02  -5.3581354707019788e-02  -4.7421365186593636e-02  -5.7978623215576543e-02  -4.9257582388848246e-02  -6.8407493373511166e-02  -8.7000644450222833e-02  -8.7266788997710398e-02  -6.8337128742620948e-02  -1.0303408014465001e-01  -1.1118750110896439e-01  -7.0685785840122278e-02  -7.0574311810631937e-02  -9.4610254236664790e-02  -1.1169098025784162e-01  -1.2003988423588020e-01  -1.2086348524216343e-01  -1.2815303022474242e-01  -1.2965882552178290e-01  -4.8578158821865614e-02  -4.7238210395090061e-02  -4.9001811445157438e-02  -4.6620759176849588e-02  -4.7279726582314378e-02  -4.5467644998422395e-02  -4.8383604644666442e-02  -1.3439579479603000e-01  -1.3588538255941163e-01  -1.1903607126754318e-01  -1.1102837205786328e-01  -3.3256063989158050e-02  -4.0621234752727227e-02  -3.8784627664149335e-02  -2.9078742943867648e-02  -3.0308719325044722e-02  -2.7631752312544573e-02  -4.0739955725906656e-02  -4.5575043094228912e-02  -1.1591585191030020e-01  -1.0851314843883539e-01  -5.2060625947249556e-02  -4.6459386971648794e-02  -5.2924535710513053e-02  -1.0810169754855854e-01  -1.1234592966264623e-01  -1.1898952175344531e-01  -1.2357794119827376e-01  -1.2944528280115730e-01  -1.3198634660330488e-01  -1.2544691504706373e-01  -1.3628943020469109e-01  -1.3467362488517978e-01  -1.3499020480391224e-01  -1.0795473308272932e-01  -1.1272570834591561e-01  -1.1895361300614787e-01  -1.2357481951949469e-01  -1.1818725302065013e-01  -1.2933396722200674e-01  -1.3184301134900428e-01  -1.3607572683873195e-01  -1.3442391485602362e-01  -1.3504739605027632e-01  -7.9736883791311705e-02  -1.0324350309293823e-01  -1.1146759605106427e-01  -1.1200526776161934e-01  -1.2041071769799630e-01  -1.2117452394927096e-01  -1.2841413858936915e-01  -1.2998481149865188e-01  -1.3460649539606381e-01  -1.3652302265715288e-01  -6.6587138224106959e-02  -6.6945817985715611e-02  -7.4835327099999183e-02  -7.5275162764234668e-02  -1.2607587590251515e-01  -1.3718490863031882e-01  -1.3611244674272274e-01  -1.3638914363878890e-01  -1.3760316279055018e-01  -1.3638079670899667e-01  -4.9905452986153141e-02  -1.3709696101195454e-01  -1.3634760249605155e-01  -1.3607186126037515e-01  -1.3687883320096000e-01  -1.3619432419685962e-01  -1.3070918655515545e-01  -7.9069160212240031e-02  -1.3212433917322527e-01  -1.3297199140468294e-01  -4.4718841032870230e-02  -4.1130707419904794e-02  -4.4194169194426161e-02  -1.3173243168748675e-01  -1.3211550714605755e-01  -1.0647602228047798e-01  -9.9405278863580152e-02  -1.3461544954198876e-01  -1.3483514522857154e-01  -1.3409746160100491e-01  -1.3443980894829533e-01  -1.3089797430517078e-01  -1.3308726024866527e-01  -1.2795591016840704e-01  -1.2905477880129296e-01  -1.2452331718730647e-01  -1.2477099936898114e-01  -1.3175451978996794e-01  -1.3313694835427453e-01  -1.2843832004463865e-01  -1.2908793936747279e-01  -1.2473311182031330e-01  -1.2522668575765553e-01  -1.2127525671336899e-01  -1.2199726686389288e-01  -1.1820858995134417e-01  -1.1975282214151654e-01  -1.1640580908179438e-01  -1.1890657762873122e-01  -1.1582298110251345e-01  -1.1941333531464597e-01  -1.2075192393760006e-01  -1.2148371344328276e-01  -1.1755034674896922e-01  -1.1925231829075529e-01  -1.1570835132971730e-01  -1.1845475784619414e-01  -1.1505335572372551e-01  -1.1896534914529995e-01  -1.3086201667536532e-01  -1.2877295747600417e-01  -1.2075976285486374e-01  -1.2056892233099958e-01  -1.3039080736603115e-01  -1.2784642343137229e-01  -1.1664328940999333e-01  -1.2122720889905200e-01  -1.1824019159746149e-01  -1.2388728559084487e-01  -1.2059389653014936e-01  -1.1585090695467432e-01  -1.2072586776768482e-01  -1.1738462899107970e-01  -1.2346500314642522e-01  -1.1988001608367264e-01  -1.3052838659376104e-01  -1.2872029499576104e-01  -1.2223313718048588e-01  -1.1727786464073521e-01  -1.2105327169364415e-01  -1.1739823742841715e-01  -1.2099183063607066e-01  -1.1202188948171016e-01  -1.1756452973635712e-01  -1.1294541928103806e-01  -1.1887410375585228e-01  -1.1375874720658628e-01  -1.0415345083023397e-01  -1.1393265742537417e-01  -1.2747922962226446e-01  -1.2024370467061993e-01  -1.1776872678672083e-01  -1.0328943484253646e-01  -1.2771591313304106e-01  -1.1817876490287163e-01  -1.1915949783092622e-01  -1.1645662068534518e-01  -1.1977538726779724e-01  -8.8861554823634364e-02  -9.4589466378814116e-02  -8.1964504972100366e-02  -9.3661487276050420e-02  -1.1237793288821256e-01  -1.2004030009097691e-01  -9.3926580137493873e-02  -1.2912846707678621e-01  -3.6850626894231547e-02  -1.0217378271617694e-01  -1.3024945548693234e-01  -1.0960993836835085e-01  -7.7210169179417878e-02  -8.6252276790494298e-02  -1.1021041659295569e-01  -1.1400462674596397e-01  -1.1390042702621807e-01  -1.0379172297469788e-01  -1.1169425117105021e-01  -1.0432634851013309e-01  -1.0981335612841910e-01  -1.0235136135552593e-01  -1.0223822885088332e-01  -9.4766296147445223e-02  -1.1156653459442217e-01  -9.4407309717069635e-02  -8.8689895041921943e-02  -8.7569364117212667e-02  -8.4011055032448032e-02  -8.3579655158146554e-02  -8.1504338099395529e-02  -8.1554774551577822e-02  -1.1397294453951798e-01  -1.1907863450055521e-01  -1.1133675394560912e-01  -1.1945822113453303e-01  -9.0270022414936521e-02  -8.5405696216556887e-02  -9.5556999744618232e-02  -8.2118395776378014e-02  -1.1310334173797439e-01  -1.1536914589373765e-01  -7.3635192717962386e-02  -3.3742079282381765e-02  -3.9891354765691341e-02  -3.7013888507767802e-02  -1.0851387150088103e-01  -1.0203941610235627e-01  -1.2256139241570306e-01  -1.1212388529922136e-01  -1.1294037196630122e-01  -9.6580349448025751e-02  -1.0098584103582736e-01  -9.8580731636776761e-02  -9.8190444433268492e-02  -1.0162825747243842e-01  -1.0620597167617155e-01  -9.8693104994734313e-02  -8.9012900662681887e-02  -9.0210936609725262e-02  -9.0196039266064357e-02  -8.5972062441312294e-02  -8.3111435993894811e-02  -8.3294585517093692e-02  -7.5909894705666142e-02  -8.0848297922316750e-02  -8.0679548191901027e-02  -8.2157223328510276e-02  -7.9380757398920809e-02  -8.5207718876924021e-02  -7.8931489609590733e-02  -8.8844273899531950e-02  -8.7782150361850789e-02  -9.4263223427309639e-02  -9.3050265385443934e-02  -1.0216999601988189e-01  -9.6676326971859197e-02  -1.1159799019687038e-01  -9.8588556115558681e-02  -1.1507743932568666e-01  -1.0564457100746155e-01  -1.1164960093869511e-01  -1.0371245117478842e-01  -1.2962178396202534e-01  -1.1936055275069987e-01  -7.9874374088106673e-02  -9.0152869045888803e-02  -1.0548936146903627e-01  -1.0361641045909364e-01  -1.1832198273630712e-01  -8.0672000463535579e-02  -1.2587922523280562e-01  -7.3145997135491359e-02  -9.3509095756223445e-02  -8.5871926506867077e-02  -1.0736190541988749e-01  -9.3022424514189808e-02  -1.1369125541695371e-01  -7.7941643927553081e-02  -1.0473052650253652e-01  -1.0643291476934177e-01  -9.3390667464307478e-02  -8.9997435922208366e-02  -1.0391307391115635e-01  -8.2975652321863144e-02  -7.9226138279049535e-02  -8.8312964655850063e-02  -9.4739903610160103e-02  -1.0353