<?xml version="1.0"?>
<VTKFile type="UnstructuredGrid"  version="0.1"  >
<UnstructuredGrid>
<Piece  NumberOfPoints="1297" NumberOfCells="2496">
<Points>
<DataArray  type="Float64"  NumberOfComponents="3"  format="ascii">0 0 0  0 1 0  1 1 0  1 0 0  1.1 -0.1 0  -0.1 -0.1 0  1.1 1.1 0  -0.1 1.1 0  0.242694201132869 0.6963795259839501 0  0.2415034474377079 0.3056026622770847 0  0.7581736817020466 0.3051069635576461 0  0.7589564796270086 0.695415740368271 0  0.5002102509820248 0.5006724977364218 0  0 0.9499999999997918 0  0 0.8999999999995836 0  0 0.8499999999996529 0  0 0.7999999999999998 0  0 0.7500000000003466 0  0 0.7000000000006934 0  0 0.6500000000010401 0  0 0.6000000000013869 0  0 0.5500000000017335 0  0 0.5000000000020587 0  0 0.4500000000018723 0  0 0.4000000000016644 0  0 0.3500000000014564 0  0 0.3000000000012483 0  0 0.2500000000010403 0  0 0.2000000000008322 0  0 0.1500000000006241 0  0 0.100000000000416 0  0 0.05000000000020799 0  0.04999999999989965 0 0  0.09999999999981467 0 0  0.1499999999997036 0 0  0.1999999999995579 0 0  0.2499999999994121 0 0  0.2999999999992664 0 0  0.3499999999991206 0 0  0.3999999999989749 0 0  0.4499999999988292 0 0  0.4999999999986943 0 0  0.5499999999988151 0 0  0.5999999999989468 0 0  0.6499999999990784 0 0  0.69999999999921 0 0  0.7499999999993417 0 0  0.7999999999994734 0 0  0.8499999999996051 0 0  0.8999999999997368 0 0  0.9499999999998684 0 0  1 0.04999999999989965 0  1 0.09999999999981467 0  1 0.1499999999997036 0  1 0.1999999999995579 0  1 0.2499999999994121 0  1 0.2999999999992664 0  1 0.3499999999991206 0  1 0.3999999999989749 0  1 0.4499999999988292 0  1 0.4999999999986943 0  1 0.5499999999988151 0  1 0.5999999999989468 0  1 0.6499999999990784 0  1 0.69999999999921 0  1 0.7499999999993417 0  1 0.7999999999994734 0  1 0.8499999999996051 0  1 0.8999999999997368 0  1 0.9499999999998684 0  0.9499999999997918 1 0  0.8999999999995836 1 0  0.8499999999996529 1 0  0.7999999999999998 1 0  0.7500000000003466 1 0  0.7000000000006934 1 0  0.6500000000010401 1 0  0.6000000000013869 1 0  0.5500000000017335 1 0  0.5000000000020587 1 0  0.4500000000018723 1 0  0.4000000000016644 1 0  0.3500000000014564 1 0  0.3000000000012483 1 0  0.2500000000010403 1 0  0.2000000000008322 1 0  0.1500000000006241 1 0  0.100000000000416 1 0  0.05000000000020799 1 0  -0.1 1.05000000000004 0  -0.1 1.000000000000079 0  -0.1 0.9500000000001624 0  -0.1 0.9000000000003032 0  -0.1 0.850000000000444 0  -0.1 0.8000000000005848 0  -0.1 0.7500000000007256 0  -0.1 0.7000000000008665 0  -0.1 0.6500000000010508 0  -0.1 0.6000000000012352 0  -0.1 0.5500000000014196 0  -0.1 0.500000000001539 0  -0.1 0.4500000000014195 0  -0.1 0.4000000000013 0  -0.1 0.3500000000011588 0  -0.1 0.3000000000010178 0  -0.1 0.2500000000008986 0  -0.1 0.2000000000007579 0  -0.1 0.1500000000006174 0  -0.1 0.1000000000005272 0  -0.1 0.05000000000040083 0  -0.1 2.671196597248127e-13 0  -0.1 -0.0499999999998666 0  -0.0500000000000906 -0.1 0  -1.730560139634463e-13 -0.1 0  0.04999999999975802 -0.1 0  0.09999999999961506 -0.1 0  0.1499999999994613 -0.1 0  0.199999999999302 -0.1 0  0.2499999999991446 -0.1 0  0.2999999999990088 -0.1 0  0.3499999999988296 -0.1 0  0.3999999999986936 -0.1 0  0.4499999999985143 -0.1 0  0.4999999999984002 -0.1 0  0.5499999999985247 -0.1 0  0.5999999999986493 -0.1 0  0.6499999999987955 -0.1 0  0.6999999999989417 -0.1 0  0.7499999999990659 -0.1 0  0.7999999999992116 -0.1 0  0.8499999999993573 -0.1 0  0.8999999999994526 -0.1 0  0.949999999999584 -0.1 0  0.9999999999997226 -0.1 0  1.049999999999861 -0.1 0  1.1 -0.0500000000000906 0  1.1 -1.730560139634463e-13 0  1.1 0.04999999999975802 0  1.1 0.09999999999961506 0  1.1 0.1499999999994613 0  1.1 0.199999999999302 0  1.1 0.2499999999991446 0  1.1 0.2999999999990088 0  1.1 0.3499999999988296 0  1.1 0.3999999999986936 0  1.1 0.4499999999985143 0  1.1 0.4999999999984002 0  1.1 0.5499999999985247 0  1.1 0.5999999999986493 0  1.1 0.6499999999987955 0  1.1 0.6999999999989417 0  1.1 0.7499999999990659 0  1.1 0.7999999999992116 0  1.1 0.8499999999993573 0  1.1 0.8999999999994526 0  1.1 0.949999999999584 0  1.1 0.9999999999997226 0  1.1 1.049999999999861 0  1.05000000000004 1.1 0  1.000000000000079 1.1 0  0.9500000000001624 1.1 0  0.9000000000003032 1.1 0  0.850000000000444 1.1 0  0.8000000000005848 1.1 0  0.7500000000007256 1.1 0  0.7000000000008665 1.1 0  0.6500000000010508 1.1 0  0.6000000000012352 1.1 0  0.5500000000014196 1.1 0  0.500000000001539 1.1 0  0.4500000000014195 1.1 0  0.4000000000013 1.1 0  0.3500000000011588 1.1 0  0.3000000000010178 1.1 0  0.2500000000008986 1.1 0  0.2000000000007579 1.1 0  0.1500000000006174 1.1 0  0.1000000000005272 1.1 0  0.05000000000040083 1.1 0  2.671196597248127e-13 1.1 0  -0.0499999999998666 1.1 0  0.2340938802737975 0.6735629811833015 0  0.2282685111122979 0.6485722770720467 0  0.2231419663636757 0.6232440843619983 0  0.2188919880317896 0.5981452435270532 0  0.2154242218696885 0.5734877205270212 0  0.2126043203435108 0.5492080818509852 0  0.2106292569470211 0.5251035114363648 0  0.2101844482799083 0.5010272371389138 0  0.2106392951759238 0.4769750769401663 0  0.2122848174449057 0.4527611051020017 0  0.2148695014839302 0.428439560829066 0  0.218272149193895 0.4039243896976641 0  0.2222989774414573 0.3790149364022294 0  0.2272386782000838 0.353669912589044 0  0.232847854617496 0.3285763566286311 0  0.2652943302032602 0.2996499742968689 0  0.2911889865486932 0.2959708482518084 0  0.3176439553303157 0.2927746757603589 0  0.3441277044053155 0.2898088735150449 0  0.3704935476901125 0.2872617491732403 0  0.3966373928406697 0.2850330895656838 0  0.4225671629846196 0.2831350015696061 0  0.4483910450622957 0.2815536230926698 0  0.4741920789661783 0.2807201451944085 0  0.4999136527082836 0.280431170068282 0  0.5256311473791497 0.2807826615036735 0  0.5513942062430759 0.2816960468962285 0  0.5772738706614369 0.2830335286180461 0  0.6032459684514904 0.2849797540342506 0  0.6294863018507292 0.2871150236717764 0  0.6558926886999868 0.2895867218598215 0  0.6823178624482581 0.2924639210341189 0  0.7086661192737042 0.295607207223051 0  0.734435922605634 0.299164434369952 0  0.766531382161231 0.3279765669623272 0  0.7725536596104018 0.3528279936475212 0  0.7776358220483853 0.3781495843473859 0  0.781804019452182 0.4031741731479689 0  0.7852318629867058 0.427773383625469 0  0.7878597721763462 0.4520794089328186 0  0.7893862708049957 0.4761621327850207 0  0.7897494801855474 0.5000397920824265 0  0.788970110980748 0.5238813852758577 0  0.7873356090212833 0.5477958925453041 0  0.7850015318038929 0.5720692122871199 0  0.7817095356232781 0.5966092092294026 0  0.7780254632905451 0.6218684640524602 0  0.7731571746509797 0.6473340838073428 0  0.7673830472661827 0.6724089775683375 0  0.7351933828012593 0.7014676218796467 0  0.7093836134548412 0.7050283616351153 0  0.6831376267960929 0.7083904078264973 0  0.6566991221206965 0.7114786729738849 0  0.6302977606746034 0.7142110590435612 0  0.6039898280175081 0.7165054196092293 0  0.5779995389421368 0.7185152350718659 0  0.5521465471106634 0.7198874196842022 0  0.5264235416987675 0.720755620925272 0  0.5007771940830147 0.7210375790305215 0  0.4751124456110344 0.7207983505540259 0  0.4493836603105099 0.7198820231874249 0  0.4236117114028907 0.7183730702517703 0  0.3976181767123119 0.7165721763322819 0  0.3713875723397321 0.7143952147308733 0  0.3450547677481947 0.7118263266953893 0  0.3185978238619325 0.7089631715727494 0  0.292197073511022 0.705800601939265 0  0.2663972112033575 0.7022146462106305 0  0.3555493709426674 0.3125596091278405 0  0.240182379467725 0.4398499085622676 0  0.3564171819090635 0.6890879599719077 0  0.2406010208784206 0.5621027525253602 0  0.7591131312882701 0.5850751198398115 0  0.6184571068576685 0.6922491259665366 0  0.6432547883090919 0.3118105861730739 0  0.7617125011470031 0.4383898142452812 0  0.763117301446673 0.511528492900664 0  0.5643747394697421 0.3050559281566657 0  0.4357294594119307 0.307133080402695 0  0.4351214414004413 0.6947609644345789 0  0.5397310878375119 0.6963676971454439 0  0.2374606561069794 0.4887751563240135 0  0.24399023944804 0.3901437221271701 0  0.487093043258861 0.3077063283604025 0  0.2513990245397594 0.6100971008354321 0  0.7491242586849934 0.3872187423208809 0  0.4877293317546457 0.6968638433996706 0  0.6718737644030561 0.6865053672853272 0  0.3012756368181966 0.3201697460458768 0  0.6990529893313882 0.321256355121697 0  0.3032209576278451 0.6839778443043079 0  0.7492950876688872 0.6375317404188749 0  0.2541856709993356 0.3400408736615701 0  0.2580263969853055 0.6603665744487179 0  0.7249877388879069 0.6803071554997852 0  0.7463530177801257 0.3388501775478139 0  0.3297859890378448 0.6866367520134899 0  0.3415187029386944 0.6645998760708646 0  0.3680825475045537 0.6663775803297368 0  0.3526963599312886 0.6419079481391049 0  0.3804891975006764 0.6432770304275515 0  0.3639695385563231 0.616284898177313 0  0.3972581682699665 0.6175110251926117 0  0.3775777037655117 0.5854543792972012 0  0.331002420070232 0.6141871345809397 0  0.4181270712974434 0.585924311229992 0  0.3940785478466032 0.5494865547067856 0  0.3464690874970502 0.5549660090167163 0  0.3664624309653257 0.5152470388702517 0  0.3212545686503892 0.5174379953466929 0  0.3368932917688921 0.4823232187690124 0  0.384394650672212 0.4768991903300617 0  0.3592782207566559 0.443744394795866 0  0.4024075403061571 0.4382313463257972 0  0.3786690541638731 0.4067905944848819 0  0.4181086005762859 0.3948266471254794 0  0.3377193766701884 0.4083401177881386 0  0.3899036825698836 0.3733337179063081 0  0.4294634832691007 0.6198430900919789 0  0.4594045881168931 0.5939927996839353 0  0.4813406164337012 0.6205441517742212 0  0.5029818756089161 0.5956273939653842 0  0.5237297812880811 0.6207047287011541 0  0.5455004559894379 0.5959986412675635 0  0.5656535637451915 0.6212822392663514 0  0.5875382380210549 0.5968549559517129 0  0.6081540546345239 0.624712739978511 0  0.6293628798741254 0.5908498311087892 0  0.6105474921290031
[...]
<PointData  Scalars="u"> 
<DataArray  type="Float64"  Name="u"  format="ascii">-7.5543687296566644e-19  -3.5814083557938112e-18  -3.2761909568162331e-18  -8.1925656483813135e-20  -2.1706783248220523e-20  3.6045786813293196e-20  1.7563784261268535e-19  1.9843702798624313e-19  -8.6963182687445628e-02  -8.7474347149684314e-02  -8.7381295466504527e-02  -8.6786905040016266e-02  1.3051771464069700e-01  -1.3771835985942209e-18  -5.9017243171620918e-19  -1.3201149362126114e-17  -1.5996215706743368e-17  -5.7250856110674260e-18  -2.8645649202800855e-17  -9.0812316775761534e-18  -2.1515005989694928e-17  3.8040199720563837e-18  -2.7769800018170701e-17  -3.3564120791045780e-17  2.4827051034060512e-17  -3.8510888188587463e-18  -2.2540673867029901e-17  1.0159565269868382e-17  -2.3588509863258886e-17  8.6900986938454017e-18  -9.6620229133907550e-19  -2.2493802210314038e-18  2.4581162916236080e-18  -3.9259098124535257e-18  -7.5954674435966847e-18  -1.6279796194307748e-17  -3.0750419253835534e-18  2.2710210078660844e-18  -1.2464384155795032e-17  -2.1155266071159101e-17  2.1834789616698316e-18  -1.8261030339765895e-17  0.0000000000000000e+00  2.5510927182952627e-17  -1.5823746867482770e-17  -4.6386041586938553e-18  -1.4564533028415156e-17  -2.2914085509440373e-17  -1.3222501472775921e-17  1.7810180853941263e-17  1.2446751330105717e-17  -1.4949582100837867e-17  -2.7242653435514979e-17  -1.9642555901757165e-17  -8.2738598236435803e-19  -1.2544049353919687e-17  -1.0421952325400485e-17  5.1832708337613233e-18  -5.8024560435497261e-18  -9.9997797919514981e-18  -2.5223574438363758e-18  -1.1463168222726385e-17  -1.0520797244021422e-17  -2.1591909462115733e-18  -1.7177974184370204e-17  -1.4266376928291792e-17  -7.3439470732092796e-18  -4.7894615250782003e-18  -2.3104529925150218e-17  7.3130077621871252e-19  -8.0241723348464557e-19  -7.9024845571546874e-18  -1.3773293410658254e-17  -4.5428908305571909e-18  -3.0118188522948652e-17  -1.1107939653487610e-17  -1.4936908006979806e-17  -2.8009556983703323e-17  -3.5100992596576727e-17  -4.0915378371664203e-17  -1.0388543950259728e-17  1.5452577785444710e-17  1.5159611761922086e-18  -2.0697999023559803e-17  4.8279801936448963e-18  7.8768747040128064e-19  1.2114124507015542e-17  -2.5507669169231474e-18  7.8161379922591309e-18  -8.9953121450644644e-20  -3.1488793174362985e-19  -4.0242882673439464e-19  -1.2442434491384447e-18  -2.2881825430286149e-18  -3.5257459203177769e-19  -1.5740646881388770e-18  -2.9265693259134476e-18  -2.6003127569997965e-18  -1.6198783716850910e-18  -4.5124972522969856e-19  -4.0823441695672558e-18  -4.3795873728520465e-18  2.1996282444583503e-18  -9.3915280260987285e-20  -2.5542091469097583e-18  -7.4454526326692194e-19  -1.5414470761485765e-18  -1.7083564165107160e-19  5.0877133865685555e-19  -4.8964099484324784e-19  -9.0411075989882443e-20  7.3533470603233881e-21  -5.8142431802221302e-20  -1.9467917999532908e-20  1.1514109711852508e-19  -3.1986817404761802e-19  -1.4306344013636614e-18  -1.7670616171319661e-18  -4.5237111784101827e-19  -1.2636438870600438e-18  -1.8672605251810519e-18  -2.2127635731550607e-18  -9.2753879255590602e-19  -1.6184671274965799e-18  7.4274108435681588e-19  1.6099415880328117e-18  -6.3885656009709323e-19  -1.5816206388898459e-18  -1.7436318636272247e-18  -3.8954923057475685e-18  -1.6607740718714319e-18  2.3720560055493570e-18  2.3673799829642883e-18  -1.4873554475254550e-19  -7.6823923625078741e-20  1.7783706400740251e-19  -1.9897170813794172e-19  -2.0117955473646084e-18  -4.3311516961849527e-18  -2.8000890121421862e-18  -5.4190275587313606e-19  -1.6289475270333836e-18  -1.1221420938380913e-18  5.9485135285786294e-19  3.3592951737904051e-20  -1.6120255828418492e-18  -5.9626543157939907e-19  -1.5035887399761389e-18  -1.3203709412800725e-18  -8.9526795226011285e-19  -1.3721427283664121e-18  -2.0058993107389091e-18  -8.5311227903987332e-19  -1.3675359547351580e-18  -2.3365817255159746e-18  -7.3735525051252040e-19  -4.7665984300967685e-21  -1.8752937122120551e-19  -9.5430034962100438e-20  -2.8671188031782553e-19  -2.8360362047269456e-19  -1.1707488151221095e-18  -9.7173907760408161e-19  -4.0080376811980142e-18  -2.9265509463438675e-18  -2.4092862848326252e-18  -1.2616342083991873e-18  -6.0259934200183976e-18  -7.3604793390435914e-18  -4.6576044053334542e-18  -1.8350733221466965e-18  2.3509349823571472e-18  2.8563504041079776e-19  -2.4947868075967160e-18  -3.9669083556651178e-19  3.6731717608669417e-19  1.8455931446078833e-19  7.2421976514650268e-19  3.0020744922460364e-19  -1.2796208594480199e-19  -2.1177865123940077e-19  -7.8844392583792403e-02  -6.8923798342797382e-02  -6.0142075686195118e-02  -5.2992577951429178e-02  -4.7825917855509520e-02  -4.4315985439486553e-02  -4.2466487376711631e-02  -4.1612328638371672e-02  -4.2409617541602045e-02  -4.4485602071136290e-02  -4.7951845894451055e-02  -5.3039489520029834e-02  -6.0184437560930414e-02  -6.9132069744333571e-02  -7.9177148379555223e-02  -8.3641533905061682e-02  -7.6692359461390691e-02  -6.9432981581486336e-02  -6.3117164615059049e-02  -5.7789394028401206e-02  -5.3694845077526768e-02  -5.0564604296640114e-02  -4.8429948261094299e-02  -4.7190926080975248e-02  -4.6727482331047163e-02  -4.7048490362213952e-02  -4.8311652040069014e-02  -5.0290472104114081e-02  -5.3665612175179025e-02  -5.7811906309734394e-02  -6.3047784937445603e-02  -6.9362397798497621e-02  -7.6666635552979298e-02  -8.3585230401094668e-02  -7.8977210159737271e-02  -6.9193776575866894e-02  -6.0337647896861232e-02  -5.3158014812754763e-02  -4.7985843195345684e-02  -4.4348463870109739e-02  -4.2182981780980677e-02  -4.1406304665197284e-02  -4.1894642457579352e-02  -4.3772888657721276e-02  -4.7403528839335539e-02  -5.2470568442045090e-02  -5.9761295957976655e-02  -6.8633377510799037e-02  -7.8471251915085916e-02  -8.2955673604578714e-02  -7.5891625569675103e-02  -6.8684195945054483e-02  -6.2359995799875348e-02  -5.7234659857436518e-02  -5.3078649927159278e-02  -4.9680097695814315e-02  -4.7656773305938628e-02  -4.6316060803380243e-02  -4.5831053603095806e-02  -4.6287575940736445e-02  -4.7504230953004399e-02  -4.9707857764546080e-02  -5.2850007493506698e-02  -5.6958402235223082e-02  -6.2289144404169522e-02  -6.8708479205155618e-02  -7.5990551389035724e-02  -8.3031067681854642e-02  -1.4707379392430083e-02  -4.1927841769797847e-03  -1.3966153354767438e-02  -4.1643974159421126e-03  -1.0625148758654107e-02  -8.8892298436031632e-03  -1.4777463745545253e-02  -5.9031845965141780e-03  1.1269122146270480e-03  -1.5719488462135980e-03  5.8975199430474218e-04  7.2886138067987491e-04  2.3493919701381791e-03  1.2620315198532896e-03  -1.9652478138582837e-02  6.2789008901795625e-03  -1.3593086545325825e-02  -1.5793627469377555e-02  3.5822241848447404e-03  -2.2386022222437227e-02  -3.1269190507939242e-02  -3.0269776696910892e-02  -3.2210557503017330e-02  -2.9061563499941559e-02  -4.2467991245754531e-02  -3.9399410726492903e-02  -4.3568797939225905e-02  -4.3238065306439193e-02  -2.1864071648987668e-02  3.7377943365656968e-03  1.2537599894013879e-02  2.9541495159871974e-02  3.9661722380297554e-02  5.6404492976260670e-02  6.8486154053656878e-02  8.1233825762872552e-02  4.2071080207537338e-02  9.4925195141776497e-02  1.0315781683933889e-01  7.9389748138585708e-02  9.7997702880450996e-02  7.2002582277940902e-02  8.1424573414707255e-02  1.0496274593141652e-01  8.4997308011954209e-02  1.0097898983008470e-01  7.6428377019271812e-02  8.2327473792452435e-02  5.7942836572558679e-02  5.6885342508625071e-02  7.5518297327951261e-02  9.8876012759652132e-02  8.2027054568141064e-02  1.0065770527299672e-01  8.1436121661955449e-02  9.7002210213831791e-02  7.5221712352771669e-02  8.7351557140901648e-02  6.1122659762636575e-02  7.5654219869403017e-02  9.9292634493923698e-02  7.9279065203669036e-02  9.8757733160250452e-02  5.5971596943104322e-02  5.3846516260957739e-02  4.1064745512211655e-02  4.5579088774019859e-02  5.3928395938533005e-02  4.0975054202530226e-02  5.9587681628193216e-02  8.4372538955582305e-02  1.9744767534402952e-02  3.3644475824537376e-02  4.9303762494829678e-02  4.3371815333122871e-02  5.5671766366890155e-02  8.7098846649797126e-02  5.2334664823386466e-02  8.0263152393296705e-02  1.0712763251884529e-01  9.2530588749955386e-02  6.9002540354325972e-02  7.4471998624051378e-02  1.0324442052972799e-01  7.8546754147019532e-02  5.5139299387685969e-02  5.4967736741047241e-02  7.0127266302332333e-02  3.4231102407516700e-02  2.9187036844677411e-02  9.6979884900814904e-03  9.1109028449357903e-03  1.1523176889632031e-01  2.9150288747484144e-02  3.1053147714041690e-02  2.4037170381947651e-02  4.1003089357316995e-02  8.2415098792135086e-03  3.4279522496782461e-03  1.8423655528449386e-02  4.9125209394407926e-02  2.5587838424899749e-02  1.6060757422624420e-02  3.2694549201281668e-02  5.9334593907597870e-02  3.7324080865220523e-02  3.1562328992701789e-02  5.5327247022591369e-02  3.3320598317933020e-02  1.3769341765630192e-02  5.9300458854431885e-03  1.8033510612407801e-02  2.1204801406644474e-02  3.1482764319275047e-02  1.0645677919377754e-02  5.2703317551792229e-02  1.1867072163604338e-01  1.1586225316178558e-02  1.1877928753098452e-01  7.3727487714962278e-02  4.5545112645290715e-02  6.9005855065633281e-02  4.3042123330839864e-02  2.2216470175168906e-02  1.7789365034845385e-02  3.3026810642294312e-02  5.0290114443397427e-02  3.1541278564555665e-02  2.7713802517497658e-02  1.0718514442144635e-01  -9.5275437734392079e-03  -1.2255098346783637e-02  4.7188967456599944e-02  2.2644132813701489e-02  2.7365088501796930e-02  4.1775463840664065e-02  3.0973526819536721e-02  1.0972609411131734e-02  3.0436876698905557e-02  1.3124968315365410e-02  9.5482558146983750e-03  -6.5400290186224874e-03  -2.1133189786357476e-02  -2.1675987108354822e-02  2.2203123400700724e-02  4.4475058648509678e-03  2.1416833361529251e-03  -5.5064582413055030e-03  -2.3892945067971152e-02  -2.9602263215593963e-02  -2.5196451949989675e-03  2.3961163245657412e-02  4.6667171673735880e-02  -1.4446588135862224e-02  -7.4726634057861981e-03  3.9024747784427070e-05  -2.2824541710487253e-02  1.4261657004432764e-03  3.0690354459545028e-03  -9.0692068144829149e-03  -2.8816640870936050e-02  -6.2363205696815312e-03  2.5679248826929739e-03  -9.7766097199580848e-03  1.2259972702563220e-02  -3.9152078084455427e-03  1.5731646003113005e-02  -7.2618297896452774e-04  -1.5811619554071055e-02  -3.2151478245612451e-02  -2.2013313618474615e-02  8.4273966091129669e-03  3.3630491323740484e-02  -7.7037520495300861e-03  -8.7614781359626401e-03  3.8618645104787279e-03  -4.4122230587172309e-02  -4.3886107688783371e-02  -4.2309078077082271e-02  -4.4437645649160321e-02  -2.5256017253767376e-03  1.0818974079210483e-01  1.2219969028765484e-01  2.3795976171337399e-02  -9.0651355594666017e-03  -1.1696979820562434e-02  -7.7058176663915177e-03  -3.0709133532011129e-02  3.1396997878215351e-04  1.2115300660470933e-03  2.8893886660626877e-02  4.5639968527743283e-02  2.0010290707302607e-03  4.7138858511680030e-02  1.1658335410480931e-01  1.1549596151342718e-01  9.0759324496688915e-02  1.7765829032536585e-02  1.3119719314789071e-03  2.6020445849023893e-02  1.6727977489321200e-02  2.5943304587626129e-02  -1.8074815026578610e-03  -9.1783011899576085e-04  1.1280861733552427e-01  -1.0561304490963494e-02  2.2959846531481882e-02  1.5628333791337861e-02  5.3163887751361369e-02  4.5724923503169109e-03  4.9250830274730421e-02  9.0624377345893251e-02  -4.2292398495357118e-03  1.2483732480066183e-01  6.3290424220786679e-02  -2.7309536374946920e-02  4.5619594603181435e-02  2.3913717319096910e-02  2.0071197835296439e-02  1.0900435926376507e-01  -3.4828394859341512e-03  8.7793929425560215e-03  2.4798279156530469e-02  1.2721639820881575e-01  1.6373315668021717e-02  2.5884999246592173e-02  1.2233393975003454e-01  5.9271343469597455e-02  2.6289188342915645e-02  1.2677522285766379e-01  4.9838496059785922e-02  1.1381565918768544e-02  5.7728895128503271e-03  3.4616752326353757e-02  5.8530654717723736e-02  2.3025912772608882e-02  -5.1586040128542097e-03  4.6962465384861485e-02  -5.4518466691479375e-02  -5.4443356683138822e-02  -5.4037166068301501e-02  -5.3903115677841285e-02  1.0001656450676955e-02  -1.1340698162735592e-02  1.2073979977433135e-02  -1.5712391896905095e-03  2.0182737169699871e-02  6.2883129286764788e-02  -7.4510192258723604e-03  4.1360836553062386e-03  3.7484802143939989e-02  6.9714479735394477e-02  5.6973254934541209e-02  7.2480339491773127e-02  8.2734922373396240e-03  6.9887018159304537e-02  2.6416062625831876e-02  7.7200104670261768e-02  1.2524482333871020e-01  3.2241579479771819e-02  5.4542752053824299e-02  3.8084759541138838e-02  2.3756589949853156e-02  6.5306974052839362e-02  6.8792737683436175e-02  1.1775589042843417e-01  -2.0333987891257978e-02  -7.4559830243887945e-02  -7.4891053043103464e-02  -8.2690570790269508e-02  -9.7093736125956162e-02  -8.3001509078723321e-02  -9.7728473858051668e-02  -7.5771566546788918e-02  -8.3096927713704721e-02  -7.5649866031631652e-02  -8.3313872194101274e-02  -9.7792796983232289e-02  -9.7909696999390783e-02  -5.2051308276833227e-02  -4.6646020343741330e-02  -5.7035978033882807e-02  -4.8074507086024114e-02  -6.6714078774576677e-02  -8.6125390137181262e-02  -8.6287937944875326e-02  -6.6312681837128615e-02  -1.0267696686884367e-01  -1.1101166402652764e-01  -6.8768864638545077e-02  -6.9120570680230767e-02  -9.4396445783864066e-02  -1.1076189958000826e-01  -1.1903423993372877e-01  -1.2023813422464985e-01  -1.2685788838968054e-01  -1.2858824822725687e-01  -5.0047525853993018e-02  -4.9258952923160647e-02  -5.1040189824653491e-02  -4.8133971335306731e-02  -4.5452833708556899e-02  -4.3588597690734129e-02  -4.6824960550807246e-02  -1.3285635575222798e-01  -1.3460928478545692e-01  -1.1747277938731732e-01  -1.0946420624665826e-01  -3.2059340357959175e-02  -3.8755309442229852e-02  -3.6812887112853090e-02  -2.7772552697735878e-02  -2.9410868784656735e-02  -2.6480462674913770e-02  -3.9275254770584453e-02  -4.5682847700741741e-02  -1.1383924848766160e-01  -1.0644482862547436e-01  -5.2303441211680589e-02  -4.7181690686426886e-02  -5.3699494133004178e-02  -1.0891531194997750e-01  -1.1303209601789752e-01  -1.1932119253348565e-01  -1.2354038196399002e-01  -1.2927086747627525e-01  -1.3143810744868187e-01  -1.2496956099613039e-01  -1.3575252396883772e-01  -1.3440644334472279e-01  -1.3411182348378886e-01  -1.0833250329001473e-01  -1.1295069570697022e-01  -1.1879237401909301e-01  -1.2305041808532506e-01  -1.1764586290690349e-01  -1.2862233161628592e-01  -1.3076651328543074e-01  -1.3497273844105814e-01  -1.3356921847441447e-01  -1.3364298907781574e-01  -7.8794307759094892e-02  -1.0319175996160664e-01  -1.1166308312436443e-01  -1.1140627429586139e-01  -1.1979334257675078e-01  -1.2098570291636616e-01  -1.2758890219976809e-01  -1.2943319800937875e-01  -1.3360061062898854e-01  -1.3577583818161354e-01  -6.4484705640186726e-02  -6.5238688205358580e-02  -7.3428261003542411e-02  -7.3643331296884468e-02  -1.2484286006369724e-01  -1.3608572872717076e-01  -1.3527456924217579e-01  -1.3532508826210513e-01  -1.3711727446742905e-01  -1.3622551203105529e-01  -4.8146059369991216e-02  -1.3632531236912657e-01  -1.3588494183343541e-01  -1.3442647060108853e-01  -1.3544019445500061e-01  -1.3507167671666923e-01  -1.2893916821814763e-01  -7.7559010370564729e-02  -1.3110015602696551e-01  -1.3260305132262218e-01  -4.3568782287669083e-02  -4.0049860350167131e-02  -4.3305094331706186e-02  -1.3095615714424941e-01  -1.3081474473414939e-01  -1.0404620261391255e-01  -9.7045766605085057e-02  -1.3416943386286034e-01  -1.3467471339406312e-01  -1.3291023202135430e-01  -1.3353347996508083e-01  -1.3022618353005233e-01  -1.3250683401291510e-01  -1.2767744820299276e-01  -1.2872468428804579e-01  -1.2463404073156271e-01  -1.2474574012190655e-01  -1.3179322711686489e-01  -1.3329705290639413e-01  -1.2892020978592206e-01  -1.2955639177413117e-01  -1.2565379277660330e-01  -1.2599279487883258e-01  -1.2260368432786524e-01  -1.2300895555833037e-01  -1.1985802075458102e-01  -1.2094768143996361e-01  -1.1825018578476915e-01  -1.2018486286546960e-01  -1.1772022080136571e-01  -1.2066994736834499e-01  -1.2125408285214676e-01  -1.2169236530375784e-01  -1.1835858393694640e-01  -1.1962566983324008e-01  -1.1669857346158265e-01  -1.1890327056495768e-01  -1.1609171202928187e-01  -1.1938839390361704e-01  -1.2982173494085442e-01  -1.2744526306428910e-01  -1.2076650659086161e-01  -1.2007507836684951e-01  -1.2871028246063276e-01  -1.2598317322761601e-01  -1.1840904631924108e-01  -1.2234752126227648e-01  -1.1974669746009406e-01  -1.2477635989621966e-01  -1.2171990215042018e-01  -1.1675400574499761e-01  -1.2101066276865213e-01  -1.1802776646703597e-01  -1.2351898926097608e-01  -1.2015365439475925e-01  -1.2901749591246259e-01  -1.2702302682379291e-01  -1.2032525289137735e-01  -1.1695248642831707e-01  -1.2061398914052968e-01  -1.1785682819951304e-01  -1.2132691164575883e-01  -1.1176623082628963e-01  -1.1676718841422584e-01  -1.1353231827331552e-01  -1.1874353442463328e-01  -1.1349125897332586e-01  -1.0648976900269159e-01  -1.1442470896572382e-01  -1.2755230840902856e-01  -1.1990844617158210e-01  -1.1654680228220850e-01  -1.0477634917017939e-01  -1.2690656740275541e-01  -1.1703276328937330e-01  -1.1873961490043100e-01  -1.1465248579515050e-01  -1.2007218745074562e-01  -8.6291651080031895e-02  -9.1972555229888259e-02  -7.9569590735510454e-02  -9.1425712136495141e-02  -1.1092203930329196e-01  -1.1836559940783438e-01  -9.2656749966297719e-02  -1.2895733880983629e-01  -3.5678852109892759e-02  -1.0055455196305189e-01  -1.2937208428261296e-01  -1.1025237996706309e-01  -7.5039603488386022e-02  -8.4125526267122913e-02  -1.1165902546199742e-01  -1.1441224862191168e-01  -1.1379523815007987e-01  -1.0297938643462753e-01  -1.1041885403295702e-01  -1.0291486571573717e-01  -1.0800753512475822e-01  -1.0047358455966460e-01  -1.0007482884385241e-01  -9.2637752786313976e-02  -1.0951334969142974e-01  -9.2507658779117805e-02  -8.6628773892020436e-02  -8.5584793819894311e-02  -8.2006706455636222e-02  -8.1545026839293169e-02  -7.9518709163824405e-02  -7.9483700564015963e-02  -1.1203163771268496e-01  -1.1736456531790913e-01  -1.0941975381752923e-01  -1.1738265248531396e-01  -8.8204932261957955e-02  -8.3320606166377723e-02  -9.3793172045378195e-02  -8.0090442331586090e-02  -1.1143334868969902e-01  -1.1439025928292951e-01  -7.1758071773362173e-02  -3.2942138124632418e-02  -3.8867082427271882e-02  -3.6266620105031309e-02  -1.0883174658559826e-01  -1.0199321083759702e-01  -1.2087141455971918e-01  -1.0999897394527806e-01  -1.1107760713688181e-01  -9.4776251734235900e-02  -9.9383859782042200e-02  -9.6852766041684912e-02  -9.5937197892360174e-02  -9.9597166050705066e-02  -1.0456874742991934e-01  -9.6939856563246288e-02  -8.7047378539352543e-02  -8.8428734679660254e-02  -8.8552693981118327e-02  -8.4279076119186169e-02  -8.1424428913495231e-02  -8.1644523819512108e-02  -7.4382706057619416e-02  -7.9287863290233920e-02  -7.9011452811664371e-02  -8.0552098791535673e-02  -7.7875228001197006e-02  -8.3643235499107849e-02  -7.7402435062539840e-02  -8.7261256489930411e-02  -8.6301379373165399e-02  -9.2787342551599358e-02  -9.1368776755811384e-02  -1.0069729318619569e-01  -9.4863995869063966e-02  -1.1007041931270992e-01  -9.6672777398368784e-02  -1.1343022140037523e-01  -1.0480124006860231e-01  -1.1090578591205445e-01  -1.0286309819869291e-01  -1.2967563864738557e-01  -1.1930105603347047e-01  -7.7740164145978410e-02  -8.7819533945920930e-02  -1.0534707354250203e-01  -1.0348670700325868e-01  -1.1827486003824747e-01  -7.8702818116872506e-02  -1.2531006649513263e-01  -7.1173320553195057e-02  -9.2328464073409139e-02  -8.4051890782507452e-02  -1.0630718429508622e-01  -9.1072212766518182e-02  -1.1204685197614869e-01  -7.5874436616882590e-02  -1.0641575444764019e-01  -1.0760804582087410e-01  -9.2877652476261410e-02  -8.8356922368409890e-02  -1.0188331525416557e-01  -8.0991733616689321e-02  -7.7156568907096351e-02  -8.6451949083300852e-02  -9.2743965398897663e-02  -1.043706