<?xml version="1.0"?>
<VTKFile type="UnstructuredGrid"  version="0.1"  >
<UnstructuredGrid>
<Piece  NumberOfPoints="1297" NumberOfCells="2496">
<Points>
<DataArray  type="Float64"  NumberOfComponents="3"  format="ascii">0 0 0  0 1 0  1 1 0  1 0 0  1.1 -0.1 0  -0.1 -0.1 0  1.1 1.1 0  -0.1 1.1 0  0.2602372624195849 0.6704572782083119 0  0.2571844505231914 0.3307187326944274 0  0.7410335222445418 0.3300217123900379 0  0.742737609508468 0.6673988008281891 0  0.5000772709551619 0.499685257877091 0  0 0.9499999999997918 0  0 0.8999999999995836 0  0 0.8499999999996529 0  0 0.7999999999999998 0  0 0.7500000000003466 0  0 0.7000000000006934 0  0 0.6500000000010401 0  0 0.6000000000013869 0  0 0.5500000000017335 0  0 0.5000000000020587 0  0 0.4500000000018723 0  0 0.4000000000016644 0  0 0.3500000000014564 0  0 0.3000000000012483 0  0 0.2500000000010403 0  0 0.2000000000008322 0  0 0.1500000000006241 0  0 0.100000000000416 0  0 0.05000000000020799 0  0.04999999999989965 0 0  0.09999999999981467 0 0  0.1499999999997036 0 0  0.1999999999995579 0 0  0.2499999999994121 0 0  0.2999999999992664 0 0  0.3499999999991206 0 0  0.3999999999989749 0 0  0.4499999999988292 0 0  0.4999999999986943 0 0  0.5499999999988151 0 0  0.5999999999989468 0 0  0.6499999999990784 0 0  0.69999999999921 0 0  0.7499999999993417 0 0  0.7999999999994734 0 0  0.8499999999996051 0 0  0.8999999999997368 0 0  0.9499999999998684 0 0  1 0.04999999999989965 0  1 0.09999999999981467 0  1 0.1499999999997036 0  1 0.1999999999995579 0  1 0.2499999999994121 0  1 0.2999999999992664 0  1 0.3499999999991206 0  1 0.3999999999989749 0  1 0.4499999999988292 0  1 0.4999999999986943 0  1 0.5499999999988151 0  1 0.5999999999989468 0  1 0.6499999999990784 0  1 0.69999999999921 0  1 0.7499999999993417 0  1 0.7999999999994734 0  1 0.8499999999996051 0  1 0.8999999999997368 0  1 0.9499999999998684 0  0.9499999999997918 1 0  0.8999999999995836 1 0  0.8499999999996529 1 0  0.7999999999999998 1 0  0.7500000000003466 1 0  0.7000000000006934 1 0  0.6500000000010401 1 0  0.6000000000013869 1 0  0.5500000000017335 1 0  0.5000000000020587 1 0  0.4500000000018723 1 0  0.4000000000016644 1 0  0.3500000000014564 1 0  0.3000000000012483 1 0  0.2500000000010403 1 0  0.2000000000008322 1 0  0.1500000000006241 1 0  0.100000000000416 1 0  0.05000000000020799 1 0  -0.1 1.05000000000004 0  -0.1 1.000000000000079 0  -0.1 0.9500000000001624 0  -0.1 0.9000000000003032 0  -0.1 0.850000000000444 0  -0.1 0.8000000000005848 0  -0.1 0.7500000000007256 0  -0.1 0.7000000000008665 0  -0.1 0.6500000000010508 0  -0.1 0.6000000000012352 0  -0.1 0.5500000000014196 0  -0.1 0.500000000001539 0  -0.1 0.4500000000014195 0  -0.1 0.4000000000013 0  -0.1 0.3500000000011588 0  -0.1 0.3000000000010178 0  -0.1 0.2500000000008986 0  -0.1 0.2000000000007579 0  -0.1 0.1500000000006174 0  -0.1 0.1000000000005272 0  -0.1 0.05000000000040083 0  -0.1 2.671196597248127e-13 0  -0.1 -0.0499999999998666 0  -0.0500000000000906 -0.1 0  -1.730560139634463e-13 -0.1 0  0.04999999999975802 -0.1 0  0.09999999999961506 -0.1 0  0.1499999999994613 -0.1 0  0.199999999999302 -0.1 0  0.2499999999991446 -0.1 0  0.2999999999990088 -0.1 0  0.3499999999988296 -0.1 0  0.3999999999986936 -0.1 0  0.4499999999985143 -0.1 0  0.4999999999984002 -0.1 0  0.5499999999985247 -0.1 0  0.5999999999986493 -0.1 0  0.6499999999987955 -0.1 0  0.6999999999989417 -0.1 0  0.7499999999990659 -0.1 0  0.7999999999992116 -0.1 0  0.8499999999993573 -0.1 0  0.8999999999994526 -0.1 0  0.949999999999584 -0.1 0  0.9999999999997226 -0.1 0  1.049999999999861 -0.1 0  1.1 -0.0500000000000906 0  1.1 -1.730560139634463e-13 0  1.1 0.04999999999975802 0  1.1 0.09999999999961506 0  1.1 0.1499999999994613 0  1.1 0.199999999999302 0  1.1 0.2499999999991446 0  1.1 0.2999999999990088 0  1.1 0.3499999999988296 0  1.1 0.3999999999986936 0  1.1 0.4499999999985143 0  1.1 0.4999999999984002 0  1.1 0.5499999999985247 0  1.1 0.5999999999986493 0  1.1 0.6499999999987955 0  1.1 0.6999999999989417 0  1.1 0.7499999999990659 0  1.1 0.7999999999992116 0  1.1 0.8499999999993573 0  1.1 0.8999999999994526 0  1.1 0.949999999999584 0  1.1 0.9999999999997226 0  1.1 1.049999999999861 0  1.05000000000004 1.1 0  1.000000000000079 1.1 0  0.9500000000001624 1.1 0  0.9000000000003032 1.1 0  0.850000000000444 1.1 0  0.8000000000005848 1.1 0  0.7500000000007256 1.1 0  0.7000000000008665 1.1 0  0.6500000000010508 1.1 0  0.6000000000012352 1.1 0  0.5500000000014196 1.1 0  0.500000000001539 1.1 0  0.4500000000014195 1.1 0  0.4000000000013 1.1 0  0.3500000000011588 1.1 0  0.3000000000010178 1.1 0  0.2500000000008986 1.1 0  0.2000000000007579 1.1 0  0.1500000000006174 1.1 0  0.1000000000005272 1.1 0  0.05000000000040083 1.1 0  2.671196597248127e-13 1.1 0  -0.0499999999998666 1.1 0  0.242989256276783 0.6547695705391177 0  0.2298818278249385 0.6334029837555972 0  0.2190751597732275 0.6106773036256481 0  0.2105397978101129 0.58794943232691 0  0.2040655226307459 0.5658918505414475 0  0.1989386890066975 0.544372190490564 0  0.1955124181817074 0.5227557332333725 0  0.1949140188755297 0.5012564082099925 0  0.1953815809597258 0.4797858551400402 0  0.1983186606352886 0.4578823683278125 0  0.2029415686571605 0.4360035462673552 0  0.2092339132248807 0.4140778650539652 0  0.216923066423385 0.3915533888034411 0  0.2271690932143219 0.3684665530974698 0  0.2400111934489253 0.3468535045738467 0  0.2761315656893087 0.3167446862223851 0  0.2998254231284184 0.3063642186513615 0  0.3251750340104083 0.2976220349577089 0  0.3508811497863886 0.2902469037327128 0  0.3762651355835897 0.284070954555581 0  0.4011351257060979 0.2786333523221455 0  0.4257384826940881 0.2742507100746127 0  0.4503258143071098 0.27086585866624 0  0.4749523361605492 0.2689446090313902 0  0.4994263113580069 0.2683474069151976 0  0.5238681545605561 0.2691095713639672 0  0.5483697320704934 0.271147203558546 0  0.5730580413484946 0.2743127322977123 0  0.5977565879510315 0.2788232729133286 0  0.6228637272852207 0.2840673995768971 0  0.648331395571848 0.2902307083801623 0  0.6738475607164619 0.2974070465112083 0  0.6988861864275404 0.3059108851867613 0  0.7222588409904447 0.3159992882340016 0  0.7576861828319844 0.3459614890997249 0  0.7710269060684685 0.3667895172191413 0  0.7818871330452857 0.3894420652540097 0  0.7902033423760266 0.4119674463780073 0  0.7968593988947148 0.4339830519852121 0  0.8014409669478932 0.4558431024797531 0  0.8040762552763836 0.4773424511952748 0  0.8046680976091138 0.4983905048841215 0  0.8035677830532781 0.5193448383641419 0  0.8008605944614343 0.5404268351763158 0  0.7965776132899307 0.5619848077612032 0  0.7906582390961072 0.5839039132670346 0  0.7828829679436957 0.6069432169200271 0  0.7725133784480892 0.6299147466981857 0  0.7595374876363213 0.6512515748589618 0  0.7239419428670935 0.6815610328688539 0  0.7004555760643872 0.6916305858981107 0  0.6757279508834004 0.7004240368290813 0  0.6502293686195247 0.7082079835433083 0  0.6247489459178214 0.7148902048498478 0  0.5994724089720435 0.7205123926458217 0  0.5747262186590073 0.7252043435523386 0  0.5501234986533577 0.7284709892300282 0  0.5257412449173889 0.7305155728058792 0  0.5014527885919979 0.7311901399594298 0  0.4771109818140499 0.7305598859860786 0  0.4526503590719274 0.7285686286465821 0  0.4282007748787097 0.7253104149749098 0  0.4034920332957551 0.7210610632313358 0  0.378335221221504 0.7158902278627204 0  0.3529781694585873 0.7097651691870255 0  0.3274188075440011 0.7025931185767247 0  0.3022607837636835 0.6941193611349755 0  0.278899776770992 0.6840012247865186 0  0.3611257524128818 0.3125989152694701 0  0.2307741083406159 0.4456729179262031 0  0.3631918402715203 0.6874581463391617 0  0.2316903663154048 0.5561025149156075 0  0.7662394257965065 0.574576562980348 0  0.6137676894230382 0.6930405404444316 0  0.636760973335852 0.3117372795014921 0  0.7708562539005215 0.4430241830410682 0  0.7742529832208879 0.5086308978707663 0  0.5609614103793444 0.2972326533611811 0  0.4380724963719952 0.2993745040762602 0  0.4387844628658693 0.700542481726517 0  0.5384347148888389 0.7034066999421424 0  0.2259065966616393 0.4899280488766988 0  0.2396667785625532 0.4007506393780483 0  0.4871549658750255 0.2982287733164434 0  0.2485619228034147 0.5995048554551456 0  0.7514293511442323 0.3969018834316453 0  0.4889480934236499 0.7046565710096842 0  0.6652703711783288 0.6798795801732527 0  0.3086916406817872 0.3288340700511214 0  0.6905451463028316 0.3298762044947037 0  0.3120040421611991 0.6742925487711552 0  0.7483692029591142 0.6217195094631538 0  0.2596244048400638 0.3559789581908324 0  0.2648063786134907 0.6440021888488248 0  0.7158500898231821 0.6634470364538856 0  0.7393610460680129 0.3545146355756671 0  0.3375188244901196 0.6813482952188455 0  0.3475577287066198 0.6603818238859627 0  0.3734766661224463 0.6651291783100575 0  0.3571260189731713 0.6385320557118854 0  0.3845101537538045 0.6424011588087363 0  0.3667470160554642 0.6137376018508894 0  0.3998803231111864 0.6171347409989985 0  0.3789255464356351 0.5836746877747954 0  0.3334155862176449 0.6090246557123589 0  0.4195099797188333 0.5858554705966688 0  0.3944571252559932 0.548430307009854 0  0.3458070823108758 0.5524634716572607 0  0.3655157353728953 0.5142068464441496 0  0.3181346369091125 0.5160741155367322 0  0.3345618684861166 0.4825102684918017 0  0.3839012173461586 0.4764488224162086 0  0.3587100395110701 0.4445242511487981 0  0.4027299737646981 0.4374487143476337 0  0.3797269957374166 0.4069138949669854 0  0.4193307356937809 0.3926913839425501 0  0.33805057851795 0.4111588358753556 0  0.3921390626829342 0.3722200219119453 0  0.4316134672743595 0.6211229365216097 0  0.4604063092412194 0.595209303665442 0  0.4821811417813659 0.6231083168425918 0  0.5031197676790383 0.5972231105806353 0  0.5233657562939033 0.6231380090744932 0  0.544790231722875 0.5970205555080681 0  0.564206427801498 0.6225033469037076 0  0.5862137604103247 0.5964107720319638 0  0.6057506938115459 0.6236514332512546 0  0.6281766989794032 0.5880530896240735 0  0.61012200
[...]
<PointData  Scalars="u"> 
<DataArray  type="Float64"  Name="u"  format="ascii">-2.4485484946317475e-18  -3.8275261309270159e-18  -1.8382998560453884e-18  3.6248867292102288e-19  -2.4949834337838474e-20  1.2382670618144998e-19  6.7183421710822690e-20  1.7795522697737398e-19  -7.1365208602609753e-02  -7.1085741287272672e-02  -7.1191838636513016e-02  -7.1441265866780929e-02  1.3218434563986797e-01  -4.1240102020435584e-18  -2.0368518704010975e-17  -2.8185204669285608e-18  -1.1125375506365331e-17  -1.3304565101361347e-18  -2.1649376546680787e-17  -1.4596043207512989e-17  -2.7451781992293827e-17  9.6918515564404384e-18  -4.0291431560057087e-17  -4.6634001954215828e-17  1.4332733193524231e-17  -3.6119926961450490e-18  -1.4470221612764172e-17  6.0756511360932988e-18  -2.3958840594306905e-17  1.5138700442000406e-17  -9.3846103633965011e-19  3.9852416744402989e-19  -5.0582217650544742e-20  -1.2763889971488156e-17  -5.9239325610910787e-18  -1.6249757841835943e-17  1.0361030108764877e-17  -5.5637776772171115e-18  -3.7217108755185171e-17  -4.0865624500027617e-17  1.0324095868355471e-17  -2.1536823921309838e-17  4.8856255244654289e-18  4.3848442341521083e-17  -2.1815073021464742e-17  -3.3637671274605614e-18  -3.5402004016531444e-17  -1.8850353134979927e-17  1.3978471134456817e-18  -6.3840022520491226e-18  2.5183085222259190e-17  -2.9062306452534794e-17  -3.6299388749935220e-17  -2.4922941411502116e-17  -1.9871561987261103e-17  -1.8895577003295226e-17  -3.7600681344172606e-18  -1.7421836241478803e-18  -5.0544505693360293e-18  -1.0730049057670293e-17  -3.7185089539099367e-19  -1.9097080525332001e-17  -2.0826603646411256e-17  -2.2950694752048095e-18  -1.2785187589586179e-17  -1.6740799775218420e-17  -1.0533187575890961e-17  -1.2975461513187455e-17  -2.0377175917082087e-17  4.9640429700727702e-18  -1.2976337027806342e-17  -1.0689712845272539e-17  -2.2235576104356993e-17  -1.1395535147311166e-17  -3.0022722170368421e-17  -2.9532440800667282e-17  -2.0371528985466498e-17  -1.5998487902308390e-17  -3.9728070218122009e-17  -6.0907801244513733e-17  -1.8957123674676194e-17  2.6840543079339187e-17  -1.0546465734052757e-17  -2.4407892712254526e-17  -1.2600199819090637e-18  -5.9818844919442429e-18  1.2144509772240751e-17  -4.4764040150632973e-18  -1.8795125012504608e-18  -1.7334082586902561e-19  -4.4123044155598016e-20  -1.6763306966253257e-18  -3.0781871641285315e-18  -1.2618651624301652e-18  1.0016164306579427e-20  -8.3635778766566215e-19  -2.1964391590055569e-18  -3.2438548902396129e-18  -2.1685651479034424e-18  -3.5634643695727573e-19  -5.4814530467375268e-18  -6.7623785815441813e-18  8.7584993614714936e-19  1.0070304950350315e-19  -1.9557333635334133e-18  -1.1983080741800273e-18  -1.9851120365903962e-18  5.0960955502649387e-19  8.3049463183171932e-19  -3.6792315795259289e-19  -1.6018803433099157e-19  -8.9900029394468063e-20  -9.5892040877477281e-20  -1.3588405721327776e-19  -5.1019941260213425e-19  -1.1152789402636955e-18  -1.8888210063570461e-18  -5.6346113358250421e-19  1.3770167567175431e-18  -1.8048504766283935e-18  -5.8278053010874974e-18  -4.4382679071275250e-18  -5.3697661637297531e-19  -1.7437678083350247e-18  1.5208943839425097e-18  2.7659830735625008e-18  -4.3373101422194593e-19  -2.5197272505308926e-18  -3.8934066822949279e-18  -2.5910600170575547e-18  -9.6266254247502223e-19  5.3773491998071126e-19  2.7395226345485552e-18  6.7019952566090257e-19  -3.6913355185230040e-19  4.0304203221255849e-19  -4.6876105029697112e-19  -3.7169909019239683e-18  -5.7176921114880239e-18  -3.8104833022438788e-18  -2.8945001210717227e-18  -2.5708925299489180e-18  -4.4885683753523650e-19  2.2544639871661938e-19  1.1043351605181724e-19  -1.3566261656924129e-18  -5.8638240557455835e-19  -2.4884591386602802e-18  -2.7162378098574843e-18  -1.0621586702236949e-18  -8.1533856883560709e-19  -1.8111974450126683e-18  -1.6763929977114442e-18  -2.2446541658338116e-18  -2.0472490497640770e-18  7.6906336131327890e-20  1.5185490128083667e-19  -2.0553815679584747e-19  1.3422340182042688e-19  -4.8208863903822112e-19  -1.5372507964952061e-18  -1.6071914026749124e-18  -1.5117001761566813e-18  -5.9045265930774161e-18  -4.0982848256594230e-18  -4.3212188000228420e-18  -1.8223867351682024e-18  -5.4040568348764964e-18  -8.6078113311120704e-18  -7.1703322677977832e-18  -2.8280631070302275e-18  3.1844482942837721e-18  -2.7233974474869652e-19  -3.8521654362461122e-18  -1.3040278406182700e-18  -5.2768002109797102e-19  4.7980611097605977e-19  1.6886345315010659e-19  -7.1148785787648077e-19  -3.6851190125639902e-19  -9.6361306788822835e-20  -7.0215263586709542e-02  -6.4813600632387225e-02  -5.9326310508236821e-02  -5.4554039966530590e-02  -5.0955831572095871e-02  -4.8651040295738260e-02  -4.7497710199438055e-02  -4.6560395586727643e-02  -4.7178594372379638e-02  -4.8406315647393214e-02  -5.0526290355778089e-02  -5.3822868822547221e-02  -5.8610620239731397e-02  -6.4358054840657264e-02  -6.9793097057095257e-02  -7.1984676202161396e-02  -6.9173145636818395e-02  -6.5287197631219207e-02  -6.1439246446217288e-02  -5.8113808692261099e-02  -5.5931056556632233e-02  -5.4287585359684601e-02  -5.3212924908093200e-02  -5.2614275665767832e-02  -5.2343497109651811e-02  -5.2435761775633367e-02  -5.3042766160134487e-02  -5.3997162433959328e-02  -5.5865535650549608e-02  -5.8254008387951056e-02  -6.1505046100021027e-02  -6.5411795991450805e-02  -6.9397069679583617e-02  -7.2216049915418148e-02  -6.9677887948219899e-02  -6.4841654184874864e-02  -5.9551875334666937e-02  -5.4917785019938520e-02  -5.1533359248946073e-02  -4.9056475192470625e-02  -4.7569187469419030e-02  -4.6976657244841631e-02  -4.7235272524313789e-02  -4.8438880118214539e-02  -5.0829864899905125e-02  -5.4329588545255221e-02  -5.9224927150994928e-02  -6.4771934279597931e-02  -6.9912526827369592e-02  -7.2478692306715886e-02  -6.9482510790636914e-02  -6.5741044347633448e-02  -6.2074811223790743e-02  -5.9093407608453358e-02  -5.6809463491064277e-02  -5.4962285645936179e-02  -5.3979414715394254e-02  -5.3279167435524181e-02  -5.2939740868165538e-02  -5.3061055837268965e-02  -5.3537120059270110e-02  -5.4599402999593052e-02  -5.6200993397659230e-02  -5.8483738490853171e-02  -6.1756734989348937e-02  -6.5621535839586631e-02  -6.9480333110274212e-02  -7.2220916387102319e-02  -1.2612885505835657e-02  -6.7915531487406705e-03  -1.2894311180298577e-02  -7.2774007505259624e-03  -1.2537838647403394e-02  -1.0219065871120968e-02  -1.2959651974568777e-02  -9.5378180137908070e-03  -4.2213655828790232e-03  -4.6947982327547521e-03  -2.3890939348493712e-03  -3.2598024111638868e-03  -2.8915698813646207e-03  -3.4895531555020980e-03  -1.7929246453287431e-02  2.2243125168694674e-03  -1.2402439720881947e-02  -1.4020749337148093e-02  -1.9618408153660436e-03  -1.9177460046920791e-02  -2.3091144610783647e-02  -2.2304344622461045e-02  -2.5187049342335052e-02  -2.3649759033086606e-02  -3.1482183614761600e-02  -2.9173486793737911e-02  -3.2533766746849470e-02  -3.2348861388988903e-02  -1.8489833324545377e-02  6.3553425908711367e-03  1.3683073140927563e-02  3.1844254629971695e-02  4.0856982340899392e-02  5.8318988188944904e-02  6.9515513458370842e-02  8.2645047903919258e-02  4.4247818978134387e-02  9.5999723523404731e-02  1.0443894413730458e-01  8.0239543423031370e-02  9.9050673184731985e-02  7.1715891989520969e-02  8.1836280057811336e-02  1.0631450783472385e-01  8.6454485508034515e-02  1.0267372943983356e-01  7.8402874463164282e-02  8.3702570613528648e-02  6.0531152524866585e-02  5.8790569461809605e-02  7.5873766204616666e-02  9.9481589807326964e-02  8.1706477715368361e-02  1.0107781093878163e-01  8.0955517307831654e-02  9.7440657187702631e-02  7.5216631929714256e-02  8.7993339861840492e-02  6.1927514463037181e-02  7.6806899800867634e-02  1.0023033646380303e-01  7.9798218248693167e-02  9.9421836221727150e-02  5.7532421146584335e-02  5.3938117301060705e-02  4.0585147875848507e-02  4.4012203067825495e-02  5.4030073354368678e-02  4.0157110316389404e-02  6.0494249479481191e-02  8.5113068387169422e-02  1.9354845849041680e-02  3.3891831993275480e-02  4.7456714438823537e-02  4.1503275454354505e-02  5.5666658732060510e-02  8.7642550656638105e-02  5.1971854476258551e-02  8.0786553586922688e-02  1.0847690453538888e-01  9.3654107749804816e-02  7.0014315007099662e-02  7.5877308503382562e-02  1.0461950729895633e-01  8.0036846939088233e-02  5.7444970115657287e-02  5.7102557013719600e-02  7.0803938532093505e-02  3.6550515590286832e-02  3.0840590251293567e-02  1.3823228224120788e-02  1.3132835736662412e-02  1.1633007290071860e-01  3.0102133906679929e-02  3.2676504719250467e-02  2.3033030574601373e-02  3.9966507365677736e-02  1.0370179841801047e-02  8.2463767987466761e-03  2.1001809098845206e-02  4.8789786936524075e-02  2.3180573237425464e-02  1.3076895571059136e-02  3.1408783649044487e-02  5.9985217226963559e-02  3.9507421701551949e-02  3.4188299746875421e-02  5.5164206360093233e-02  3.2950610263220138e-02  1.6205092571289898e-02  1.1352454595691988e-02  2.1736398417973278e-02  1.9534502762410016e-02  3.2140386358494505e-02  6.8362428584181354e-03  5.4107709122058076e-02  1.2022084496766725e-01  1.2066349871516382e-02  1.2043463312413777e-01  7.3069266833825586e-02  4.4259467961108315e-02  6.8068159641682349e-02  4.1952537228428212e-02  1.8748807628740913e-02  1.4458105300402761e-02  3.2454219425681739e-02  5.2986961663906110e-02  3.3577650661477713e-02  2.5678853814516404e-02  1.0815571897873756e-01  -2.6444951426098889e-03  -6.1976486188902568e-03  4.9041154180538969e-02  2.4386650861079391e-02  3.0151594061709971e-02  4.3490965888206751e-02  3.1056481537102103e-02  1.2756553817248141e-02  3.2028604873632689e-02  1.6757133202124769e-02  1.0030516412581477e-02  -3.8321107544464093e-04  -1.2075836492002980e-02  -1.7365514338515107e-02  1.9231723344463561e-02  8.9256276590475407e-04  -2.8944274827360020e-03  -8.9519034710318083e-05  -1.5319675652894436e-02  -2.3494887317576447e-02  -5.1293327995073747e-03  2.2314833492171917e-02  4.7026642073494475e-02  -1.3305527103542365e-02  -8.4076791748381157e-03  -1.5189361016699249e-03  -1.8921805645767665e-02  -4.3532580142595668e-05  -7.3161341988758736e-04  -9.0340653379796607e-03  -2.3605400256103103e-02  -1.7508326217805211e-03  -3.1636121238676016e-03  -1.1359116955085834e-02  1.1269412471783473e-02  -6.9841082232548158e-03  1.4771572529995534e-02  -5.1534146209677948e-03  -1.5090062653039768e-02  -2.5161717058889539e-02  -1.3706502621906909e-02  9.2177185203383138e-03  3.1677994939424907e-02  -2.6730261564046833e-03  -8.8510235630040388e-03  7.2870145891696450e-03  -3.2079524513058490e-02  -3.2716210830355960e-02  -3.2186027600732858e-02  -3.2605751801955088e-02  -5.9949025355432797e-03  1.0984644010348066e-01  1.2351230378349981e-01  2.0704343351161870e-02  -1.0622142360214209e-02  -1.2547238210321082e-02  -3.0142292696296443e-03  -2.4738870825783684e-02  -3.6525124232272155e-03  3.5058943114106992e-03  2.5477580232894991e-02  4.6758880250696425e-02  -2.3837947643604788e-03  4.6588145750649498e-02  1.1800049915350518e-01  1.1689749539577464e-01  9.1639447409826241e-02  2.0670399987511166e-02  4.5102077198099916e-03  2.2536398865628391e-02  1.7348481698491004e-02  2.3298131935992384e-02  -6.8742974339985304e-03  -6.3804654183006338e-03  1.1394724934533798e-01  -5.6159928808352895e-03  1.9766137809455988e-02  1.6105702954579752e-02  5.4356252302395346e-02  4.5934142943190037e-03  4.8653182762010624e-02  9.1090222351859748e-02  -9.2239890921707209e-03  1.2655436914838966e-01  6.5155274040299541e-02  -1.7835652592410788e-02  4.5716754656092706e-02  2.2039503904454107e-02  1.7745944115469349e-02  1.1046416822880219e-01  -7.8349938927497441e-03  1.0768114027950875e-02  2.0867926112749478e-02  1.2869678518244171e-01  1.5460480153320966e-02  2.8985964739658313e-02  1.2372269494390012e-01  5.8929873530372150e-02  2.4042050281794580e-02  1.2841381420804154e-01  4.8407820354432612e-02  1.0284107051792729e-02  6.3367696986817391e-03  3.5392990470928067e-02  5.7624925321975003e-02  2.1881129602398196e-02  -1.0288695173586875e-02  4.6064792215385265e-02  -3.9652759461045149e-02  -3.9808390311620152e-02  -3.9827659958028540e-02  -4.0064104675053919e-02  1.2246460944815759e-02  -5.6902938267623269e-03  9.3693596697828913e-03  -1.1937645503471460e-04  1.8914430724212509e-02  6.3165066555934860e-02  -1.0604020015557067e-03  7.2190150077555615e-03  4.0541944108161192e-02  6.9416505010133897e-02  5.7325922627336184e-02  7.1967827099643999e-02  7.0186661372694309e-03  6.9692946982450862e-02  2.7257671904286761e-02  7.7323306138895889e-02  1.2691423767799873e-01  3.3027947897547053e-02  5.5823292441161791e-02  3.9325995951517638e-02  2.1012918052670224e-02  6.4623014904502535e-02  6.9512121548255368e-02  1.1908024515431626e-01  -1.3092914712246474e-02  -8.0419241245807946e-02  -8.0459619417530825e-02  -8.5311194249198377e-02  -9.3816176874951210e-02  -8.5740367776336909e-02  -9.4688806368457390e-02  -7.9961141317983167e-02  -8.4334700965464443e-02  -7.9814567218960825e-02  -8.4496485118684295e-02  -9.3637154927696836e-02  -9.3404411389004183e-02  -5.9653503329248042e-02  -5.2412973418628293e-02  -6.3000810655226405e-02  -5.4511543832826526e-02  -6.9858105150275532e-02  -8.4798168214053740e-02  -8.4826420876421837e-02  -6.9940794336501882e-02  -9.6487680785832058e-02  -1.0396178397211735e-01  -7.1747858990281799e-02  -7.1296874259044907e-02  -8.9819456077127588e-02  -1.0760311637918320e-01  -1.1681222491194881e-01  -1.1655704639502398e-01  -1.2710408513212118e-01  -1.2846392854678604e-01  -4.7766035272077692e-02  -4.5588413636292291e-02  -4.7424316114600802e-02  -4.5554672809899818e-02  -5.0619018182108885e-02  -4.8561217822572687e-02  -5.1046739211653355e-02  -1.3547389986449040e-01  -1.3688295004020037e-01  -1.1767099983022627e-01  -1.0910512193743058e-01  -2.7107536319157934e-02  -4.0374299082694312e-02  -3.8439805628514047e-02  -2.3042003157636885e-02  -2.2457392687675760e-02  -1.9954459278108967e-02  -3.6972527081900151e-02  -4.8576763299571307e-02  -1.1585594524589493e-01  -1.0755542812746707e-01  -5.4749176564198844e-02  -4.8513681269369509e-02  -5.5100984866076862e-02  -9.9874859559582196e-02  -1.0397413218696924e-01  -1.1365212367285288e-01  -1.1949265993281263e-01  -1.2731171625431018e-01  -1.3102132291575286e-01  -1.2295948373201586e-01  -1.3665574850591999e-01  -1.3444637488625918e-01  -1.3623684749426568e-01  -1.0038010728812503e-01  -1.0525812103365231e-01  -1.1441706150224533e-01  -1.2032980301401623e-01  -1.1423053927477178e-01  -1.2806985987038935e-01  -1.3177989160296621e-01  -1.3732425716161673e-01  -1.3509720244311954e-01  -1.3719712054586389e-01  -7.8478044790169302e-02  -9.6384702070101705e-02  -1.0380031303485403e-01  -1.0760448073974394e-01  -1.1678402815350417e-01  -1.1636440057206557e-01  -1.2680144804558643e-01  -1.2815089971104493e-01  -1.3498404976761202e-01  -1.3703192362083377e-01  -6.8464847866882103e-02  -6.8463973062847266e-02  -7.5172221219091451e-02  -7.5594883183514233e-02  -1.2537541244149769e-01  -1.3977179123116595e-01  -1.3828166810868797e-01  -1.3839768613530173e-01  -1.3928027679406282e-01  -1.3736059875458859e-01  -5.3107566359667700e-02  -1.3936306480887195e-01  -1.3696050083025813e-01  -1.3888598612214095e-01  -1.4011400436389523e-01  -1.3803436525425766e-01  -1.3184018267320416e-01  -7.8435780805615071e-02  -1.3589293244310555e-01  -1.3586255369461867e-01  -4.8015708932468537e-02  -4.4021115157371185e-02  -4.6881825581314679e-02  -1.3496640954579012e-01  -1.3607512665752880e-01  -1.0666657975832304e-01  -9.7911183419321923e-02  -1.3713652812863414e-01  -1.3605812891694136e-01  -1.3774175899318664e-01  -1.3685562938077694e-01  -1.3406406576223939e-01  -1.3497929233171455e-01  -1.3033025782884836e-01  -1.3042846310510967e-01  -1.2602403975830928e-01  -1.2572151272601320e-01  -1.3399235922887962e-01  -1.3396970310551284e-01  -1.2983790032749706e-01  -1.2950827390191857e-01  -1.2516440664158129e-01  -1.2511550805332228e-01  -1.2068076326740389e-01  -1.2135288031805622e-01  -1.1674159159546278e-01  -1.1865116216533730e-01  -1.1439415240240183e-01  -1.1758577568153088e-01  -1.1367871737693411e-01  -1.1814916587088427e-01  -1.2128009521594466e-01  -1.2194607677101153e-01  -1.1725767131312025e-01  -1.1931917195754024e-01  -1.1491676713376554e-01  -1.1833901646374415e-01  -1.1415995270017644e-01  -1.1893682863970625e-01  -1.3426262914910397e-01  -1.3190670630886431e-01  -1.1608181239776419e-01  -1.1674003281190691e-01  -1.3468510788756066e-01  -1.3168552352007998e-01  -1.1483967835829950e-01  -1.2029825941209393e-01  -1.1716001236644395e-01  -1.2350273659516160e-01  -1.2055454387914247e-01  -1.1532911127234927e-01  -1.2106581636119594e-01  -1.1761868164255698e-01  -1.2438421125544920e-01  -1.2112137890336262e-01  -1.3189044994916779e-01  -1.3173590364101562e-01  -1.2474821272928252e-01  -1.1835936217149211e-01  -1.2224792949179843e-01  -1.1726220412205879e-01  -1.2095552785890548e-01  -1.1298318633280172e-01  -1.2200764468433223e-01  -1.1265825762224044e-01  -1.2253303475633016e-01  -1.1471920082609563e-01  -1.0150391488044017e-01  -1.1383043479149445e-01  -1.2982058559985032e-01  -1.2394074471999533e-01  -1.2182976266581021e-01  -1.0184850764362481e-01  -1.3138661999630213e-01  -1.2321835649185860e-01  -1.2002383620994908e-01  -1.2134873713956906e-01  -1.1971220210366310e-01  -8.8218143507103747e-02  -9.5996507951470189e-02  -7.8873864836128058e-02  -9.0576109430129184e-02  -1.1610537506371139e-01  -1.2316875298214568e-01  -9.8098081485231900e-02  -1.2866107949652877e-01  -4.0550331267935995e-02  -1.0016679550551510e-01  -1.3084182750316381e-01  -1.1061327486038793e-01  -7.1829916863329818e-02  -8.1386781144082279e-02  -1.1016013112448549e-01  -1.0906797717063162e-01  -1.0977497630597520e-01  -1.0006630670221360e-01  -1.0962019277545654e-01  -1.0232234285673585e-01  -1.0885614256770089e-01  -1.0070782656509975e-01  -1.0125718596131085e-01  -9.2134534031157359e-02  -1.1177570647032123e-01  -9.2110023188103407e-02  -8.4482791250361580e-02  -8.4425161479451213e-02  -7.8512916884515005e-02  -7.9981401670300989e-02  -7.5356824261221117e-02  -7.8013708297911072e-02  -1.1763034384285539e-01  -1.2312202511606689e-01  -1.1558772527909442e-01  -1.2302041184568877e-01  -8.7510165951007551e-02  -8.2137213615718907e-02  -1.0043724520312811e-01  -7.6462628749962055e-02  -1.1869112007405343e-01  -1.1984691067530638e-01  -6.5967129061442087e-02  -3.6704783727856100e-02  -4.3394862382500815e-02  -4.0166327844838069e-02  -1.0125126794931676e-01  -9.5420915039684515e-02  -1.2332839132753973e-01  -1.1410337108454342e-01  -1.1311137418727421e-01  -1.0078378234943609e-01  -1.0545444838511499e-01  -1.0224945101733320e-01  -9.9060262855114378e-02  -1.0085280719503348e-01  -1.0513690142676806e-01  -9.6886528893133025e-02  -8.6068852646131233e-02  -8.6656175395680879e-02  -8.8196332804082400e-02  -8.2894378337316443e-02  -7.7551476926485646e-02  -7.8390574431532051e-02  -6.8548545710299932e-02  -7.4565314539715113e-02  -7.7324238078757157e-02  -7.7860428529268805e-02  -7.2464396240567039e-02  -8.0658937705303815e-02  -7.2369189941031212e-02  -8.4429726492139839e-02  -8.4955439537908267e-02  -9.1372537562522227e-02  -8.9811964850571038e-02  -1.0004983228319002e-01  -9.5061586331787781e-02  -1.1082891155703133e-01  -9.8848401952707041e-02  -1.1590664681982284e-01  -1.0713197978895700e-01  -1.1253026763022816e-01  -1.0552908791663633e-01  -1.2995355249323889e-01  -1.1838076614407887e-01  -7.5556036216287800e-02  -9.2642944747344955e-02  -1.0586927769963340e-01  -1.0430932630317416e-01  -1.1601507467570721e-01  -7.9429605711720946e-02  -1.2717947779527783e-01  -6.5950030687861344e-02  -9.5728347732179905e-02  -8.4419375728875354e-02  -1.0509577226515962e-01  -9.4824627056386210e-02  -1.1579699875481891e-01  -7.6679255980911604e-02  -1.0398206575510462e-01  -1.0711266401865958e-01  -9.4542322629111303e-02  -8.8461151962674053e-02  -1.0714766206126841e-01  -8.1640440175615669e-02  -7.7977457250514789e-02  -8.6792842497192199e-02  -9.2608777382182567e