<?xml version="1.0"?>
<VTKFile type="UnstructuredGrid"  version="0.1"  >
<UnstructuredGrid>
<Piece  NumberOfPoints="1297" NumberOfCells="2496">
<Points>
<DataArray  type="Float64"  NumberOfComponents="3"  format="ascii">0 0 0  0 1 0  1 1 0  1 0 0  1.1 -0.1 0  -0.1 -0.1 0  1.1 1.1 0  -0.1 1.1 0  0.25 0.7 0  0.25 0.3 0  0.75 0.3 0  0.75 0.7 0  0.5 0.5 0  0 0.9499999999997918 0  0 0.8999999999995836 0  0 0.8499999999996529 0  0 0.7999999999999998 0  0 0.7500000000003466 0  0 0.7000000000006934 0  0 0.6500000000010401 0  0 0.6000000000013869 0  0 0.5500000000017335 0  0 0.5000000000020587 0  0 0.4500000000018723 0  0 0.4000000000016644 0  0 0.3500000000014564 0  0 0.3000000000012483 0  0 0.2500000000010403 0  0 0.2000000000008322 0  0 0.1500000000006241 0  0 0.100000000000416 0  0 0.05000000000020799 0  0.04999999999989965 0 0  0.09999999999981467 0 0  0.1499999999997036 0 0  0.1999999999995579 0 0  0.2499999999994121 0 0  0.2999999999992664 0 0  0.3499999999991206 0 0  0.3999999999989749 0 0  0.4499999999988292 0 0  0.4999999999986943 0 0  0.5499999999988151 0 0  0.5999999999989468 0 0  0.6499999999990784 0 0  0.69999999999921 0 0  0.7499999999993417 0 0  0.7999999999994734 0 0  0.8499999999996051 0 0  0.8999999999997368 0 0  0.9499999999998684 0 0  1 0.04999999999989965 0  1 0.09999999999981467 0  1 0.1499999999997036 0  1 0.1999999999995579 0  1 0.2499999999994121 0  1 0.2999999999992664 0  1 0.3499999999991206 0  1 0.3999999999989749 0  1 0.4499999999988292 0  1 0.4999999999986943 0  1 0.5499999999988151 0  1 0.5999999999989468 0  1 0.6499999999990784 0  1 0.69999999999921 0  1 0.7499999999993417 0  1 0.7999999999994734 0  1 0.8499999999996051 0  1 0.8999999999997368 0  1 0.9499999999998684 0  0.9499999999997918 1 0  0.8999999999995836 1 0  0.8499999999996529 1 0  0.7999999999999998 1 0  0.7500000000003466 1 0  0.7000000000006934 1 0  0.6500000000010401 1 0  0.6000000000013869 1 0  0.5500000000017335 1 0  0.5000000000020587 1 0  0.4500000000018723 1 0  0.4000000000016644 1 0  0.3500000000014564 1 0  0.3000000000012483 1 0  0.2500000000010403 1 0  0.2000000000008322 1 0  0.1500000000006241 1 0  0.100000000000416 1 0  0.05000000000020799 1 0  -0.1 1.05000000000004 0  -0.1 1.000000000000079 0  -0.1 0.9500000000001624 0  -0.1 0.9000000000003032 0  -0.1 0.850000000000444 0  -0.1 0.8000000000005848 0  -0.1 0.7500000000007256 0  -0.1 0.7000000000008665 0  -0.1 0.6500000000010508 0  -0.1 0.6000000000012352 0  -0.1 0.5500000000014196 0  -0.1 0.500000000001539 0  -0.1 0.4500000000014195 0  -0.1 0.4000000000013 0  -0.1 0.3500000000011588 0  -0.1 0.3000000000010178 0  -0.1 0.2500000000008986 0  -0.1 0.2000000000007579 0  -0.1 0.1500000000006174 0  -0.1 0.1000000000005272 0  -0.1 0.05000000000040083 0  -0.1 2.671196597248127e-13 0  -0.1 -0.0499999999998666 0  -0.0500000000000906 -0.1 0  -1.730560139634463e-13 -0.1 0  0.04999999999975802 -0.1 0  0.09999999999961506 -0.1 0  0.1499999999994613 -0.1 0  0.199999999999302 -0.1 0  0.2499999999991446 -0.1 0  0.2999999999990088 -0.1 0  0.3499999999988296 -0.1 0  0.3999999999986936 -0.1 0  0.4499999999985143 -0.1 0  0.4999999999984002 -0.1 0  0.5499999999985247 -0.1 0  0.5999999999986493 -0.1 0  0.6499999999987955 -0.1 0  0.6999999999989417 -0.1 0  0.7499999999990659 -0.1 0  0.7999999999992116 -0.1 0  0.8499999999993573 -0.1 0  0.8999999999994526 -0.1 0  0.949999999999584 -0.1 0  0.9999999999997226 -0.1 0  1.049999999999861 -0.1 0  1.1 -0.0500000000000906 0  1.1 -1.730560139634463e-13 0  1.1 0.04999999999975802 0  1.1 0.09999999999961506 0  1.1 0.1499999999994613 0  1.1 0.199999999999302 0  1.1 0.2499999999991446 0  1.1 0.2999999999990088 0  1.1 0.3499999999988296 0  1.1 0.3999999999986936 0  1.1 0.4499999999985143 0  1.1 0.4999999999984002 0  1.1 0.5499999999985247 0  1.1 0.5999999999986493 0  1.1 0.6499999999987955 0  1.1 0.6999999999989417 0  1.1 0.7499999999990659 0  1.1 0.7999999999992116 0  1.1 0.8499999999993573 0  1.1 0.8999999999994526 0  1.1 0.949999999999584 0  1.1 0.9999999999997226 0  1.1 1.049999999999861 0  1.05000000000004 1.1 0  1.000000000000079 1.1 0  0.9500000000001624 1.1 0  0.9000000000003032 1.1 0  0.850000000000444 1.1 0  0.8000000000005848 1.1 0  0.7500000000007256 1.1 0  0.7000000000008665 1.1 0  0.6500000000010508 1.1 0  0.6000000000012352 1.1 0  0.5500000000014196 1.1 0  0.500000000001539 1.1 0  0.4500000000014195 1.1 0  0.4000000000013 1.1 0  0.3500000000011588 1.1 0  0.3000000000010178 1.1 0  0.2500000000008986 1.1 0  0.2000000000007579 1.1 0  0.1500000000006174 1.1 0  0.1000000000005272 1.1 0  0.05000000000040083 1.1 0  2.671196597248127e-13 1.1 0  -0.0499999999998666 1.1 0  0.25 0.6750000000000718 0  0.25 0.6500000000001003 0  0.25 0.6250000000001721 0  0.25 0.6000000000002439 0  0.25 0.5750000000003158 0  0.25 0.5500000000003877 0  0.25 0.5250000000004595 0  0.25 0.5000000000005315 0  0.25 0.4750000000004732 0  0.25 0.450000000000404 0  0.25 0.4250000000003457 0  0.25 0.4000000000002657 0  0.25 0.3750000000002074 0  0.25 0.3500000000001274 0  0.25 0.3250000000000691 0  0.2750000000002428 0.3 0  0.3000000000004857 0.3 0  0.3250000000005897 0.3 0  0.3500000000005549 0.3 0  0.3750000000005203 0.3 0  0.4000000000004855 0.3 0  0.4250000000004509 0.3 0  0.4500000000004162 0.3 0  0.4750000000003816 0.3 0  0.5000000000003468 0.3 0  0.5250000000003121 0.3 0  0.5500000000002775 0.3 0  0.5750000000002429 0.3 0  0.6000000000002081 0.3 0  0.6250000000001734 0.3 0  0.6500000000001387 0.3 0  0.6750000000001041 0.3 0  0.7000000000000695 0.3 0  0.7250000000000347 0.3 0  0.75 0.3249999999999566 0  0.75 0.3499999999999349 0  0.75 0.374999999999859 0  0.75 0.3999999999997831 0  0.75 0.4249999999997072 0  0.75 0.4499999999996313 0  0.75 0.4749999999995552 0  0.75 0.499999999999501 0  0.75 0.5249999999995552 0  0.75 0.5499999999996311 0  0.75 0.5749999999996638 0  0.75 0.5999999999997396 0  0.75 0.6249999999998155 0  0.75 0.6499999999998698 0  0.75 0.6749999999999456 0  0.7250000000001388 0.7 0  0.7000000000002775 0.7 0  0.6750000000004163 0.7 0  0.650000000000555 0.7 0  0.6250000000006938 0.7 0  0.6000000000008324 0.7 0  0.5750000000009711 0.7 0  0.5500000000011098 0.7 0  0.5250000000012485 0.7 0  0.5000000000013763 0.7 0  0.4750000000012485 0.7 0  0.4500000000011097 0.7 0  0.425000000000971 0.7 0  0.4000000000008323 0.7 0  0.3750000000006936 0.7 0  0.3500000000005549 0.7 0  0.3250000000004161 0.7 0  0.3000000000002774 0.7 0  0.2750000000001387 0.7 0  0.3625000000005376 0.3216506350945809 0  0.2716506350946615 0.4375000000003748 0  0.3625000000005983 0.6783493649053163 0  0.2716506350945487 0.5625000000003519 0  0.7298578041089541 0.5869545682576782 0  0.6125000000007629 0.6793999717125546 0  0.6364370028799201 0.3212568444843676 0  0.7298692950848995 0.4367080367263547 0  0.7289196432072835 0.5118566471594022 0  0.5618022676303932 0.3199804332387257 0  0.4384775458562888 0.3217954273559854 0  0.4370183854511061 0.6786274251953534 0  0.537500000001177 0.6791204685111372 0  0.2716506350946051 0.4875000000005024 0  0.2698838014823512 0.3873892539152498 0  0.4876959187339661 0.3236082232121393 0  0.2758165379412325 0.6105013750595456 0  0.7245676476486494 0.3854610035147201 0  0.4875000000012859 0.6790921949956839 0  0.6626320517817996 0.6787105449228563 0  0.3119690964871606 0.3236160183770428 0  0.6883267532842998 0.3249319210947667 0  0.312704325440746 0.6784673322532694 0  0.7277062684510412 0.6389919140728562 0  0.2711089714757138 0.3378177136089722 0  0.273886495786019 0.6604376730605298 0  0.7123940657681799 0.6788306988736919 0  0.7297771952351747 0.3370894772395777 0  0.3375340542405701 0.6783690261299885 0  0.3504701088009146 0.6569701472531188 0  0.3750783514672964 0.6567439660510512 0  0.3625400193896208 0.6350711999211158 0  0.3880355522256436 0.6347616739765092 0  0.3745236578446536 0.6104011305656883 0  0.4047488227647703 0.6101558266247431 0  0.3882952343594766 0.5808106624829708 0  0.3449641107457422 0.6100932338007614 0  0.4248588075675906 0.5801366277400374 0  0.4041360999625675 0.5463230491658402 0  0.3619460504381689 0.5524912641870715 0  0.3803450126177088 0.5139094282666101 0  0.3411613306098 0.5162742073367618 0  0.3546811621201449 0.481937078938346 0  0.3961176429083791 0.4771705243947283 0  0.3733575980860546 0.4449961275209217 0  0.4115446037794655 0.440746921336608 0  0.3892873464495575 0.410446229565641 0  0.424672804171038 0.4005686307542695 0  0.3528132094448204 0.4102241892014687 0  0.3980794451602568 0.3796389079610851 0  0.4342296618747961 0.6112636945320825 0  0.4623539763388186 0.5869074059414549 0  0.4822091359743803 0.6110496501756888 0  0.5023409394383486 0.5881724304245167 0  0.5215380551510027 0.6112496863944762 0  0.5413705822998095 0.5888605489017542 0  0.560346998261202 0.6125425290346617 0  0.5798072396416034 0.5905793524057138 0  0.5996148933722154 0.6171999729690073 0  0.6174461631021504 0.5863894323327914 0  0.5996166391868299 0.5531224378180403 0  0.6371185926952841 0.5539574774564238 0  0.617337753931096 0.5186356947033618 0  0.6539534863868566 0.5861826101845617 0  0.6714721464048738 0.5584699296171862 0  0.5834956430800461 0.6408371152831209 0  0.461103867610972 0.6433032100134046 0  0.3254651704375855 0.5472985143884931 0  0.3087796650090536 0.5236631168668953 0  0.4384423617695056 0.3719971850576776 0  0.4604515476360581 0.3941615617799146 0  0.400102317282737 0.656658532394141 0  0.4182580247154588 0.352667578196769 0  0.5015834728456928 0.6418390107022101 0  0.5393942569970557 0.6451543482527893 0  0.4765961934260316 0.3641044964037194 0  0.4975230894373432 0.3942462869862688 0  0.5095908450971369 0.3607707872680521 0  0.5300313459876759 0.3881898306902424 0  0.522344070909072 0.4245160114284157 0  0.5573832718212811 0.409066987251366 0  0.5706662975159743 0.3835553051415836 0  0.595194167354671 0.3979188708735508 0  0.5870749723890771 0.4443317283151706 0  0.6219624333954561 0.4243187165840671 0  0.6294612724708456 0.3908034350785912 0  0.6524282332012185 0.411261759131731 0  0.647912885441465 0.4408050875132708 0  0
[...]
<PointData  Scalars="u"> 
<DataArray  type="Float64"  Name="u"  format="ascii">0.0000000000000000e+00  0.0000000000000000e+00  0.0000000000000000e+00  0.0000000000000000e+00  0.0000000000000000e+00  0.0000000000000000e+00  0.0000000000000000e+00  0.0000000000000000e+00  -1.4114314034722047e-01  -1.4118963217424310e-01  -1.4115933796608765e-01  -1.4116321415799821e-01  5.0737377612821905e-02  0.0000000000000000e+00  0.0000000000000000e+00  0.0000000000000000e+00  0.0000000000000000e+00  0.0000000000000000e+00  0.0000000000000000e+00  0.0000000000000000e+00  0.0000000000000000e+00  0.0000000000000000e+00  0.0000000000000000e+00  0.0000000000000000e+00  0.0000000000000000e+00  0.0000000000000000e+00  0.0000000000000000e+00  0.0000000000000000e+00  0.0000000000000000e+00  0.0000000000000000e+00  0.0000000000000000e+00  0.0000000000000000e+00  0.0000000000000000e+00  0.0000000000000000e+00  0.0000000000000000e+00  0.0000000000000000e+00  0.0000000000000000e+00  0.0000000000000000e+00  0.0000000000000000e+00  0.0000000000000000e+00  0.0000000000000000e+00  0.0000000000000000e+00  0.0000000000000000e+00  0.0000000000000000e+00  0.0000000000000000e+00  0.0000000000000000e+00  0.0000000000000000e+00  0.0000000000000000e+00  0.0000000000000000e+00  0.0000000000000000e+00  0.0000000000000000e+00  0.0000000000000000e+00  0.0000000000000000e+00  0.0000000000000000e+00  0.0000000000000000e+00  0.0000000000000000e+00  0.0000000000000000e+00  0.0000000000000000e+00  0.0000000000000000e+00  0.0000000000000000e+00  0.0000000000000000e+00  0.0000000000000000e+00  0.0000000000000000e+00  0.0000000000000000e+00  0.0000000000000000e+00  0.0000000000000000e+00  0.0000000000000000e+00  0.0000000000000000e+00  0.0000000000000000e+00  0.0000000000000000e+00  0.0000000000000000e+00  0.0000000000000000e+00  0.0000000000000000e+00  0.0000000000000000e+00  0.0000000000000000e+00  0.0000000000000000e+00  0.0000000000000000e+00  0.0000000000000000e+00  0.0000000000000000e+00  0.0000000000000000e+00  0.0000000000000000e+00  0.0000000000000000e+00  0.0000000000000000e+00  0.0000000000000000e+00  0.0000000000000000e+00  0.0000000000000000e+00  0.0000000000000000e+00  0.0000000000000000e+00  0.0000000000000000e+00  0.0000000000000000e+00  0.0000000000000000e+00  0.0000000000000000e+00  0.0000000000000000e+00  0.0000000000000000e+00  0.0000000000000000e+00  0.0000000000000000e+00  0.0000000000000000e+00  0.0000000000000000e+00  0.0000000000000000e+00  0.0000000000000000e+00  0.0000000000000000e+00  0.0000000000000000e+00  0.0000000000000000e+00  0.0000000000000000e+00  0.0000000000000000e+00  0.0000000000000000e+00  0.0000000000000000e+00  0.0000000000000000e+00  0.0000000000000000e+00  0.0000000000000000e+00  0.0000000000000000e+00  0.0000000000000000e+00  0.0000000000000000e+00  0.0000000000000000e+00  0.0000000000000000e+00  0.0000000000000000e+00  0.0000000000000000e+00  0.0000000000000000e+00  0.0000000000000000e+00  0.0000000000000000e+00  0.0000000000000000e+00  0.0000000000000000e+00  0.0000000000000000e+00  0.0000000000000000e+00  0.0000000000000000e+00  0.0000000000000000e+00  0.0000000000000000e+00  0.0000000000000000e+00  0.0000000000000000e+00  0.0000000000000000e+00  0.0000000000000000e+00  0.0000000000000000e+00  0.0000000000000000e+00  0.0000000000000000e+00  0.0000000000000000e+00  0.0000000000000000e+00  0.0000000000000000e+00  0.0000000000000000e+00  0.0000000000000000e+00  0.0000000000000000e+00  0.0000000000000000e+00  0.0000000000000000e+00  0.0000000000000000e+00  0.0000000000000000e+00  0.0000000000000000e+00  0.0000000000000000e+00  0.0000000000000000e+00  0.0000000000000000e+00  0.0000000000000000e+00  0.0000000000000000e+00  0.0000000000000000e+00  0.0000000000000000e+00  0.0000000000000000e+00  0.0000000000000000e+00  0.0000000000000000e+00  0.0000000000000000e+00  0.0000000000000000e+00  0.0000000000000000e+00  0.0000000000000000e+00  0.0000000000000000e+00  0.0000000000000000e+00  0.0000000000000000e+00  0.0000000000000000e+00  0.0000000000000000e+00  0.0000000000000000e+00  0.0000000000000000e+00  0.0000000000000000e+00  0.0000000000000000e+00  0.0000000000000000e+00  0.0000000000000000e+00  0.0000000000000000e+00  0.0000000000000000e+00  0.0000000000000000e+00  0.0000000000000000e+00  0.0000000000000000e+00  0.0000000000000000e+00  0.0000000000000000e+00  0.0000000000000000e+00  0.0000000000000000e+00  0.0000000000000000e+00  0.0000000000000000e+00  -1.3166666662566076e-01  -1.2193577926467858e-01  -1.1289290135317198e-01  -1.0501537800121619e-01  -9.9174684745459277e-02  -9.4774088866316858e-02  -9.2163510338117080e-02  -9.1226650032714046e-02  -9.2175363034345703e-02  -9.4851379711882844e-02  -9.9134566279024616e-02  -1.0496820468876189e-01  -1.1285209949890271e-01  -1.2195705076991610e-01  -1.3165354147329589e-01  -1.3644349928359223e-01  -1.2956801033969789e-01  -1.2222159941857463e-01  -1.1537348518348575e-01  -1.0975249227768714e-01  -1.0504012804888616e-01  -1.0125754114460847e-01  -9.8498645727504455e-02  -9.6934642716652614e-02  -9.6371820853687118e-02  -9.6915109062540500e-02  -9.8590057819131882e-02  -1.0105854864885798e-01  -1.0507129157638453e-01  -1.0976391477334164e-01  -1.1532116625186706e-01  -1.2214146856951717e-01  -1.2955310305773532e-01  -1.3641299885765981e-01  -1.3161164119817348e-01  -1.2191323982031863e-01  -1.1286012952273218e-01  -1.0497308060207568e-01  -9.9141508787778776e-02  -9.4761731287515721e-02  -9.2141699474995911e-02  -9.1294856492536547e-02  -9.2221934316533472e-02  -9.4806945366934209e-02  -9.9210321080431707e-02  -1.0502364530278942e-01  -1.1287644435268729e-01  -1.2193008918774972e-01  -1.3161802472409587e-01  -1.3643547553544733e-01  -1.2953479484458630e-01  -1.2215154853475843e-01  -1.1527546089423125e-01  -1.0974676505102485e-01  -1.0503552113539938e-01  -1.0102164898225802e-01  -9.8535194826688405e-02  -9.6889266690756509e-02  -9.6327139288838487e-02  -9.6893317717038768e-02  -9.8503131932347623e-02  -1.0130426486683108e-01  -1.0500349470376241e-01  -1.0967340563768524e-01  -1.1533135396759611e-01  -1.2219487429457074e-01  -1.2952957454220360e-01  -1.3641455192590113e-01  -7.3136344735354672e-02  -6.0520227678616825e-02  -7.3092353245384475e-02  -6.0586165166750895e-02  -6.7873120506831836e-02  -6.7350244796138659e-02  -7.3140325306076642e-02  -6.1815103557753152e-02  -5.4328033411826890e-02  -5.8370135474170914e-02  -5.6654259677666151e-02  -5.7203561102064260e-02  -5.4938268746740418e-02  -5.3924843093468650e-02  -7.7161056454838992e-02  -5.0976360303691459e-02  -7.2420460167646458e-02  -7.4405297638037105e-02  -5.3567662649663138e-02  -8.1766382974981441e-02  -9.0794080943113836e-02  -8.9999223732891501e-02  -9.1914523023578623e-02  -8.8292416241148086e-02  -1.0095514578922277e-01  -9.8734159837533877e-02  -1.0283332828782218e-01  -1.0166260577268944e-01  -8.1391672377432583e-02  -5.9330928063377607e-02  -5.0994816381750185e-02  -3.7387026578911742e-02  -2.8273850152298014e-02  -1.3956539152076532e-02  -3.0609458008302786e-03  7.9789767473930767e-03  -2.6643988908891050e-02  2.0186503556412362e-02  2.6954483361234252e-02  7.1598001784884827e-03  2.3017542844229209e-02  1.4607609825589461e-03  9.7429604083792420e-03  2.8805651959360853e-02  1.1745283149662724e-02  2.5291045807432543e-02  4.1914039633944578e-03  9.7953811951938703e-03  -1.1575031473363903e-02  -1.3044161886718995e-02  3.4135016165519152e-03  2.3909096947229987e-02  9.4164391455153224e-03  2.5533535233642990e-02  8.9764351108238844e-03  2.2309502302287603e-02  3.2452400703968137e-03  1.3775021354231502e-02  -9.6930296589110426e-03  3.2267243040871750e-03  2.3571183643851579e-02  6.9756590200061776e-03  2.3567665978952688e-02  -1.3672942107426466e-02  -1.5589054267462555e-02  -2.5782864421335837e-02  -2.0911991142277635e-02  -1.5089487536676315e-02  -2.4635711387790471e-02  -9.9490425762776315e-03  1.1826229933158643e-02  -4.3818839757855742e-02  -3.1281033945334900e-02  -1.7526051198061301e-02  -2.2650248322536211e-02  -1.2485870172561368e-02  1.4247181224397505e-02  -1.4989918019378521e-02  8.1967079932106120e-03  3.1084063166597869e-02  1.8738169982380128e-02  -2.0590372010580913e-03  2.6914321739341129e-03  2.7276726724032505e-02  5.9865086534255660e-03  -1.4590235376124777e-02  -1.4168983355019229e-02  -5.8685732128727823e-04  -3.3516234202584198e-02  -3.7547580813314753e-02  -5.5266757031746827e-02  -5.5506389977344119e-02  3.7660519498002941e-02  -3.7160920711591855e-02  -3.6914917738455746e-02  -3.9381395291529467e-02  -2.5177496424671240e-02  -5.5592263433236908e-02  -6.1401012066958305e-02  -4.7620812804239160e-02  -1.7688216311179988e-02  -3.6013668028710893e-02  -4.4353647382043997e-02  -3.0834010832129298e-02  -1.0237551140246638e-02  -3.0162828557070500e-02  -3.6131849248495815e-02  -1.3358418113136549e-02  -3.1127303891157650e-02  -5.0216946621582714e-02  -5.8681860097420997e-02  -4.7731699587089858e-02  -4.0485234257995127e-02  -3.4141187361093797e-02  -4.7224065982629210e-02  -1.6642637934688152e-02  4.0532643096330472e-02  -5.0136466104854997e-02  4.0716782038347957e-02  2.8223961863007917e-03  -2.1039116405228934e-02  -1.3426205806673832e-03  -2.2946089132344489e-02  -3.8277119552456114e-02  -4.2223887370001115e-02  -3.1776780791896421e-02  -1.9127258898783483e-02  -3.4581129508295179e-02  -3.4225347783791681e-02  3.0768674713430363e-02  -7.2351211159940851e-02  -7.4066780136801930e-02  -2.2018476942520043e-02  -4.3004081185864400e-02  -3.8724500984679666e-02  -2.6067354780640574e-02  -3.3536046001274508e-02  -5.1739712319824799e-02  -3.6572277131812637e-02  -5.2828938298744355e-02  -5.2438591378445767e-02  -6.9499200615374471e-02  -8.2692163979651206e-02  -8.0721679516731162e-02  -3.8135246249216860e-02  -5.2454389552306566e-02  -5.5174146665259320e-02  -6.9043596850102168e-02  -8.5533166359061635e-02  -8.8210397894285211e-02  -6.0988726437218671e-02  -3.9307882082514498e-02  -2.1623292939017724e-02  -7.3557742235538195e-02  -6.6387563365006147e-02  -5.8353558928630207e-02  -8.1498269361457279e-02  -5.7179380599617642e-02  -5.3865082794036213e-02  -6.7058774573547392e-02  -8.7701823485361860e-02  -6.8599412047417499e-02  -5.4356467128078789e-02  -6.6812803425780137e-02  -4.8968675500572156e-02  -6.1902585520276818e-02  -4.6913242714276708e-02  -5.8154770524336027e-02  -7.4457060446297837e-02  -9.1965837234088771e-02  -8.3985016587151434e-02  -5.3540690662456820e-02  -2.9454771541256038e-02  -7.0878011411781530e-02  -6.6853383896356575e-02  -5.8667088645506169e-02  -1.0276856916181880e-01  -1.0298799689668649e-01  -1.0130805369944008e-01  -1.0306282323565767e-01  -5.9600448637017835e-02  3.1715003580631451e-02  4.3419840180193271e-02  -3.7439221512058904e-02  -6.6226247300094188e-02  -6.8362682360352908e-02  -6.9356548809888521e-02  -8.9231798856243494e-02  -5.6080078443506785e-02  -6.1309288314629957e-02  -3.3873109944008134e-02  -2.2799662488963816e-02  -5.4300247171705202e-02  -1.9582774032481334e-02  3.8853633532211669e-02  3.7670490816072946e-02  1.6616178528371252e-02  -4.8285272716103410e-02  -6.0819555326312461e-02  -3.6199901861989847e-02  -4.5913140722763778e-02  -3.6890131014391862e-02  -5.6143222486281445e-02  -5.5723081801340911e-02  3.5365092628366727e-02  -7.2832663902996711e-02  -3.9084909330235312e-02  -4.6812023668407768e-02  -1.5772251324500039e-02  -5.6766151885752777e-02  -1.8561144410152206e-02  1.7153651976201955e-02  -5.8970210887770269e-02  4.5828147829415501e-02  -7.1201468203573801e-03  -8.8109287803506353e-02  -2.1060859470416467e-02  -3.7940320951939922e-02  -4.2228498588800803e-02  3.2626970525822571e-02  -5.8678395602971237e-02  -5.3615181282719415e-02  -3.6909202911953085e-02  4.7890960571701759e-02  -4.4893196636411871e-02  -4.0008777839416372e-02  4.3527372721469976e-02  -1.0360666275842079e-02  -3.5484777753596583e-02  4.7495182175342779e-02  -1.7398052633040631e-02  -4.9548715764447887e-02  -5.6388976627376720e-02  -3.2369442180016243e-02  -1.0400659871339092e-02  -3.9148550681347073e-02  -5.9994198484814111e-02  -2.0378390715719893e-02  -1.1219842173850381e-01  -1.1218054164492269e-01  -1.1220174104158535e-01  -1.1218647002129625e-01  -5.3705216448290030e-02  -7.3235293964491119e-02  -4.7554942434895886e-02  -6.1898408254298758e-02  -4.1581738440609778e-02  -7.8224031644542977e-03  -7.0783219492707494e-02  -5.8823152578946165e-02  -3.0246515874540001e-02  -1.4942866219060393e-03  -1.1557579599145240e-02  1.0572172928546501e-03  -5.2611157916880133e-02  -1.3657946094716184e-03  -3.8488763413213195e-02  6.0011908087384425e-03  4.6185968591899197e-02  -3.3122180324135185e-02  -1.4537435054138372e-02  -2.8385959886698797e-02  -3.7252367327420065e-02  -4.6224248114150567e-03  -2.0175187982753224e-03  3.9871266628395463e-02  -8.1756634734604816e-02  -1.2416470973438268e-01  -1.2459995965261843e-01  -1.3332677420836170e-01  -1.4814959167676586e-01  -1.3356780966284607e-01  -1.4871947337064617e-01  -1.2451744227351201e-01  -1.3296999065888759e-01  -1.2450100147825972e-01  -1.3326284070239858e-01  -1.4812670749310985e-01  -1.4824811140385330e-01  -6.1207853514371892e-02  -5.4231911397550479e-02  -6.6212276879317133e-02  -5.6984253071533889e-02  -1.1693973223963090e-01  -1.3697779089836368e-01  -1.3694115447851815e-01  -1.1657796016967949e-01  -1.5267168022191568e-01  -1.5963438437014024e-01  -1.1981505829418169e-01  -1.1960446924749631e-01  -1.4458978120814941e-01  -1.5760956909359131e-01  -1.6314113610848699e-01  -1.6537397806174600e-01  -1.6715555221537498e-01  -1.6957455878566005e-01  -6.9207927738832220e-02  -6.6519923390657737e-02  -6.8943307814703217e-02  -6.6659457590878393e-02  -5.9237433935282448e-02  -5.7513764749264888e-02  -6.1101191308641084e-02  -1.6848984127096125e-01  -1.7153303012340018e-01  -1.5984256336755226e-01  -1.5477203716032545e-01  -6.3092047568592630e-02  -6.0705223739525742e-02  -5.8369546731381762e-02  -5.7145960423944736e-02  -6.2364754758163610e-02  -5.8332423110647985e-02  -6.7666371503648029e-02  -5.9076887222976576e-02  -1.5385430144180559e-01  -1.4994278714793097e-01  -6.6979788772884727e-02  -5.9812164801996033e-02  -6.7089784933211008e-02  -1.5833035194603481e-01  -1.6119844104554576e-01  -1.6502288298583914e-01  -1.6670637008721548e-01  -1.6992628555622222e-01  -1.6913235292472203e-01  -1.6582941171133078e-01  -1.7054800712610230e-01  -1.7183479414460248e-01  -1.6574277822654859e-01  -1.5831546010885203e-01  -1.6139411260182432e-01  -1.6505967870651489e-01  -1.6665730075959190e-01  -1.6259564134617074e-01  -1.6992119835496819e-01  -1.6896869271243492e-01  -1.7053900425744778e-01  -1.7186446077676523e-01  -1.6591398618821857e-01  -1.2974523813083877e-01  -1.5257556837475281e-01  -1.5962779418839168e-01  -1.5758347802342096e-01  -1.6318749623074125e-01  -1.6538284337495388e-01  -1.6720336934619323e-01  -1.6960630196551371e-01  -1.6869616789483458e-01  -1.7102958365821033e-01  -1.1482474916308523e-01  -1.1524096604957154e-01  -1.2432312385411522e-01  -1.2440438853840637e-01  -1.6335422421834409e-01  -1.6845795288691104e-01  -1.7022942928175955e-01  -1.6553845020453109e-01  -1.6865874343359474e-01  -1.7120222372607435e-01  -6.0778355599247727e-02  -1.6642228475120707e-01  -1.7210111421471014e-01  -1.6520597136783918e-01  -1.6635981353444418e-01  -1.7146763207014257e-01  -1.6422082057609427e-01  -1.2904040903335706e-01  -1.5964469945984539e-01  -1.6018742758436588e-01  -5.2204062403935970e-02  -4.8368526814089048e-02  -5.2013397302343049e-02  -1.5613047143419467e-01  -1.5764569396947245e-01  -1.4177611220998554e-01  -1.3907730789964556e-01  -1.6394329875674898e-01  -1.6978562348398310e-01  -1.6357574179334852e-01  -1.6941808216865234e-01  -1.6137460023961803e-01  -1.6951810533334072e-01  -1.6116782055712103e-01  -1.6850903196287029e-01  -1.6013321215428444e-01  -1.6563371848979447e-01  -1.6187153943387295e-01  -1.6966304579402583e-01  -1.6113249694440610e-01  -1.6775553481237956e-01  -1.5973334311970872e-01  -1.6553782979423581e-01  -1.5822878981409216e-01  -1.6357661699093648e-01  -1.5661794085906294e-01  -1.6217822689147282e-01  -1.5558491391092252e-01  -1.6160646464259740e-01  -1.5496248934527501e-01  -1.6179665856046047e-01  -1.5829661546168255e-01  -1.6358640879436331e-01  -1.5652321419989651e-01  -1.6216148439361344e-01  -1.5542624198657842e-01  -1.6161081332877436e-01  -1.5468555736544831e-01  -1.6176124004482345e-01  -1.5477823376029573e-01  -1.5249927707169650e-01  -1.6592983895121588e-01  -1.6598779312846454e-01  -1.5438143181735703e-01  -1.5149067962581653e-01  -1.5520145308551228e-01  -1.6275061660655255e-01  -1.5529835176901152e-01  -1.6401736893227056e-01  -1.5537291798332062e-01  -1.5485570858590225e-01  -1.6259115111855371e-01  -1.5479052356829898e-01  -1.6383812860799016e-01  -1.5520499214178743e-01  -1.6358737113962574e-01  -1.5562366368339223e-01  -1.5099908357235559e-01  -1.6164907288882224e-01  -1.6431900939304911e-01  -1.6153691549335727e-01  -1.6414505279170732e-01  -1.5784837032698082e-01  -1.4142247856666434e-01  -1.5818094359442930e-01  -1.4213244544507880e-01  -1.5922678046219554e-01  -1.3923552050453122e-01  -1.5896919358998965e-01  -1.5676786914122984e-01  -1.4372300855524731e-01  -1.3666066446066125e-01  -1.3896205892412652e-01  -1.5706004218526523e-01  -1.4123505734192920e-01  -1.6346230242070720e-01  -1.3521934085555701e-01  -1.6351446999316557e-01  -1.2193717096449060e-01  -1.2289970101559665e-01  -1.1933585717708724e-01  -1.3749701470996487e-01  -1.3086110735019113e-01  -1.4296785799128406e-01  -1.0742542852037711e-01  -1.6986322873271020e-01  -4.1717097041973232e-02  -1.4846792657010743e-01  -1.7052865782385213e-01  -1.4131686251819961e-01  -1.1854010728500410e-01  -1.3259089632907767e-01  -1.4125330142752118e-01  -1.6167673309472141e-01  -1.6171512896684007e-01  -1.5101522398211378e-01  -1.5490675411387156e-01  -1.4957439191441330e-01  -1.5053854689384225e-01  -1.4578591229189922e-01  -1.4054148331891528e-01  -1.3667792265757958e-01  -1.4723517487954232e-01  -1.4093565746971942e-01  -1.3369403085512280e-01  -1.3581064246329244e-01  -1.3120542532144336e-01  -1.3282106641561697e-01  -1.2999205808062458e-01  -1.3125981671869510e-01  -1.3662484046915366e-01  -1.4016241794146894e-01  -1.2988792559561824e-01  -1.4237766033677574e-01  -1.3803774918823508e-01  -1.3434422449884095e-01  -1.0958309719074956e-01  -1.3125588304213914e-01  -1.3138552213536198e-01  -1.3407036331125818e-01  -1.1904362662830636e-01  -3.8235333969146586e-02  -4.5240389561504127e-02  -4.1853755147267975e-02  -1.5713327122497986e-01  -1.5189069459897700e-01  -1.5808173518067525e-01  -1.4248175992735609e-01  -1.5097825229490047e-01  -1.1329903436509632e-01  -1.1666080874043593e-01  -1.1594320150401013e-01  -1.3003131678618163e-01  -1.4036898761778990e-01  -1.4935349958359820e-01  -1.4344861956617547e-01  -1.2948494850206274e-01  -1.3579481976105151e-01  -1.3819172809691399e-01  -1.3479605539450742e-01  -1.2966144005792929e-01  -1.3240024617365057e-01  -1.2244932338656217e-01  -1.2980638121721497e-01  -1.3061652837844515e-01  -1.3206027486088318e-01  -1.2717366734285113e-01  -1.3408289289857614e-01  -1.2423876252189178e-01  -1.3494614319274970e-01  -1.3642716973056027e-01  -1.4079433548721040e-01  -1.3524547526401304e-01  -1.4579185614460802e-01  -1.3399561953692948e-01  -1.5003305651212534e-01  -1.3003643165474771e-01  -1.4704504548380629e-01  -1.5250981833856167e-01  -1.5775509941112079e-01  -1.5059065151626086e-01  -1.6918362221017508e-01  -1.6388471808842173e-01  -1.1966328952236981e-01  -1.1494705954249043e-01  -1.5220916468534978e-01  -1.5030504883189472e-01  -1.6369241631956330e-01  -1.2978621291582335e-01  -1.6742548077811237e-01  -1.1716929181200317e-01  -1.4139014478000403e-01  -1.3452787169146876e-01  -1.5175481616867029e-01  -1.1807505004298054e-01  -1.3997686079633806e-01  -1.2725186921080314e-01  -1.3600643312369692e-01  -1.3499837162844966e-01  -1.4116496643768453e-01  -1.3818881395728311e-01  -1.2545704299175472e-01  -1.3217018150948884e-01  -1.2865251327350438e-01  -1.3699054163215285e-01  -1.4158065945756221e-01  -