<?xml version="1.0"?>
<VTKFile type="UnstructuredGrid"  version="0.1"  >
<UnstructuredGrid>
<Piece  NumberOfPoints="1297" NumberOfCells="2496">
<Points>
<DataArray  type="Float64"  NumberOfComponents="3"  format="ascii">0 0 0  0 1 0  1 1 0  1 0 0  1.1 -0.1 0  -0.1 -0.1 0  1.1 1.1 0  -0.1 1.1 0  0.2369613304060882 0.7115403584836424 0  0.2370990817782741 0.2887003566990538 0  0.763137190175786 0.2883326415704416 0  0.7630881924115552 0.7114184012235009 0  0.499962489205882 0.4999373584271147 0  0 0.9499999999997918 0  0 0.8999999999995836 0  0 0.8499999999996529 0  0 0.7999999999999998 0  0 0.7500000000003466 0  0 0.7000000000006934 0  0 0.6500000000010401 0  0 0.6000000000013869 0  0 0.5500000000017335 0  0 0.5000000000020587 0  0 0.4500000000018723 0  0 0.4000000000016644 0  0 0.3500000000014564 0  0 0.3000000000012483 0  0 0.2500000000010403 0  0 0.2000000000008322 0  0 0.1500000000006241 0  0 0.100000000000416 0  0 0.05000000000020799 0  0.04999999999989965 0 0  0.09999999999981467 0 0  0.1499999999997036 0 0  0.1999999999995579 0 0  0.2499999999994121 0 0  0.2999999999992664 0 0  0.3499999999991206 0 0  0.3999999999989749 0 0  0.4499999999988292 0 0  0.4999999999986943 0 0  0.5499999999988151 0 0  0.5999999999989468 0 0  0.6499999999990784 0 0  0.69999999999921 0 0  0.7499999999993417 0 0  0.7999999999994734 0 0  0.8499999999996051 0 0  0.8999999999997368 0 0  0.9499999999998684 0 0  1 0.04999999999989965 0  1 0.09999999999981467 0  1 0.1499999999997036 0  1 0.1999999999995579 0  1 0.2499999999994121 0  1 0.2999999999992664 0  1 0.3499999999991206 0  1 0.3999999999989749 0  1 0.4499999999988292 0  1 0.4999999999986943 0  1 0.5499999999988151 0  1 0.5999999999989468 0  1 0.6499999999990784 0  1 0.69999999999921 0  1 0.7499999999993417 0  1 0.7999999999994734 0  1 0.8499999999996051 0  1 0.8999999999997368 0  1 0.9499999999998684 0  0.9499999999997918 1 0  0.8999999999995836 1 0  0.8499999999996529 1 0  0.7999999999999998 1 0  0.7500000000003466 1 0  0.7000000000006934 1 0  0.6500000000010401 1 0  0.6000000000013869 1 0  0.5500000000017335 1 0  0.5000000000020587 1 0  0.4500000000018723 1 0  0.4000000000016644 1 0  0.3500000000014564 1 0  0.3000000000012483 1 0  0.2500000000010403 1 0  0.2000000000008322 1 0  0.1500000000006241 1 0  0.100000000000416 1 0  0.05000000000020799 1 0  -0.1 1.05000000000004 0  -0.1 1.000000000000079 0  -0.1 0.9500000000001624 0  -0.1 0.9000000000003032 0  -0.1 0.850000000000444 0  -0.1 0.8000000000005848 0  -0.1 0.7500000000007256 0  -0.1 0.7000000000008665 0  -0.1 0.6500000000010508 0  -0.1 0.6000000000012352 0  -0.1 0.5500000000014196 0  -0.1 0.500000000001539 0  -0.1 0.4500000000014195 0  -0.1 0.4000000000013 0  -0.1 0.3500000000011588 0  -0.1 0.3000000000010178 0  -0.1 0.2500000000008986 0  -0.1 0.2000000000007579 0  -0.1 0.1500000000006174 0  -0.1 0.1000000000005272 0  -0.1 0.05000000000040083 0  -0.1 2.671196597248127e-13 0  -0.1 -0.0499999999998666 0  -0.0500000000000906 -0.1 0  -1.730560139634463e-13 -0.1 0  0.04999999999975802 -0.1 0  0.09999999999961506 -0.1 0  0.1499999999994613 -0.1 0  0.199999999999302 -0.1 0  0.2499999999991446 -0.1 0  0.2999999999990088 -0.1 0  0.3499999999988296 -0.1 0  0.3999999999986936 -0.1 0  0.4499999999985143 -0.1 0  0.4999999999984002 -0.1 0  0.5499999999985247 -0.1 0  0.5999999999986493 -0.1 0  0.6499999999987955 -0.1 0  0.6999999999989417 -0.1 0  0.7499999999990659 -0.1 0  0.7999999999992116 -0.1 0  0.8499999999993573 -0.1 0  0.8999999999994526 -0.1 0  0.949999999999584 -0.1 0  0.9999999999997226 -0.1 0  1.049999999999861 -0.1 0  1.1 -0.0500000000000906 0  1.1 -1.730560139634463e-13 0  1.1 0.04999999999975802 0  1.1 0.09999999999961506 0  1.1 0.1499999999994613 0  1.1 0.199999999999302 0  1.1 0.2499999999991446 0  1.1 0.2999999999990088 0  1.1 0.3499999999988296 0  1.1 0.3999999999986936 0  1.1 0.4499999999985143 0  1.1 0.4999999999984002 0  1.1 0.5499999999985247 0  1.1 0.5999999999986493 0  1.1 0.6499999999987955 0  1.1 0.6999999999989417 0  1.1 0.7499999999990659 0  1.1 0.7999999999992116 0  1.1 0.8499999999993573 0  1.1 0.8999999999994526 0  1.1 0.949999999999584 0  1.1 0.9999999999997226 0  1.1 1.049999999999861 0  1.05000000000004 1.1 0  1.000000000000079 1.1 0  0.9500000000001624 1.1 0  0.9000000000003032 1.1 0  0.850000000000444 1.1 0  0.8000000000005848 1.1 0  0.7500000000007256 1.1 0  0.7000000000008665 1.1 0  0.6500000000010508 1.1 0  0.6000000000012352 1.1 0  0.5500000000014196 1.1 0  0.500000000001539 1.1 0  0.4500000000014195 1.1 0  0.4000000000013 1.1 0  0.3500000000011588 1.1 0  0.3000000000010178 1.1 0  0.2500000000008986 1.1 0  0.2000000000007579 1.1 0  0.1500000000006174 1.1 0  0.1000000000005272 1.1 0  0.05000000000040083 1.1 0  2.671196597248127e-13 1.1 0  -0.0499999999998666 1.1 0  0.2341739340300788 0.6850067591991226 0  0.2323662732718405 0.6583735879794759 0  0.2309271504166261 0.631784467340747 0  0.2297378305348738 0.605307743488668 0  0.2287786968309779 0.5789231274190564 0  0.2280545029676755 0.5526030635686243 0  0.227540821759536 0.5263366069270394 0  0.2274431323910797 0.5000719281723022 0  0.2276345434043271 0.4738163967627941 0  0.2280934410700238 0.4475393182083113 0  0.2288203131601674 0.421232031377094 0  0.2298573622599624 0.3948946890059513 0  0.2311499182945534 0.3685033588008259 0  0.2325876049820786 0.3419324388761974 0  0.2343760878569019 0.3152881558843744 0  0.2634437066271617 0.2861661043550671 0  0.2899456229476025 0.2845456470460966 0  0.3164236815751904 0.2832287010909884 0  0.3428182988373342 0.2821080971960667 0  0.3691173251824268 0.2811338047921189 0  0.3953610140665175 0.2803369782144168 0  0.4215525275823876 0.2796780996307949 0  0.4477152407338797 0.2791211813667471 0  0.473874550251623 0.2788363997424302 0  0.5000138747896008 0.2787370264638642 0  0.5261555472452534 0.2788314318425169 0  0.5523137093699686 0.2791035851342362 0  0.5785005914782906 0.2795208280859198 0  0.6047109538335196 0.2801694371527844 0  0.6310109254580447 0.2808597397328255 0  0.6573533838228464 0.2817734044331429 0  0.6837500162931348 0.2828945877559878 0  0.7102239926694935 0.2842316365404275 0  0.7367463891688184 0.28583181481018 0  0.7658421779232623 0.3148738539300294 0  0.7676124037053456 0.3415450180495678 0  0.768993804494036 0.3681465614616968 0  0.7701387868105108 0.3946219793459659 0  0.7710494565851335 0.4210096920619122 0  0.7716950051597585 0.4473353505902594 0  0.7720543018877943 0.4736101531067614 0  0.7721015758931793 0.4998542961368602 0  0.7718081827315094 0.5260847765271623 0  0.7713599611242148 0.5523262100185277 0  0.7707194991893525 0.5786339890609027 0  0.7698337397583668 0.6050084088994274 0  0.7688206410286248 0.6315310241902723 0  0.7674969706732324 0.6581623504145304 0  0.7657666745331448 0.6848573302724594 0  0.736706053071032 0.7139465881063539 0  0.7101957614767465 0.7155637968835024 0  0.6837496024739214 0.7169398940455702 0  0.6573544632750037 0.7180817590174389 0  0.6310091443196183 0.7190064505915952 0  0.6046968744281636 0.7196849411676519 0  0.5784814604942119 0.7203100272157779 0  0.5523002065464329 0.720711144410273 0  0.5261500876739981 0.7209511001546731 0  0.5000194942290603 0.721033094488131 0  0.4738844919055369 0.720965873812204 0  0.4477352986821582 0.7206786890179276 0  0.4215711452872387 0.7201827152174312 0  0.3953461400179701 0.7196156194104605 0  0.3690619323981316 0.718893215019823 0  0.3427435094863571 0.7179560507175723 0  0.3163356618975628 0.716874586391407 0  0.2898448605835303 0.7155881784199325 0  0.2633306353322107 0.7139991956661443 0  0.3552265013807432 0.3056781644021241 0  0.2525900290877929 0.4339967706645103 0  0.3551504217095778 0.6943632218085671 0  0.252539884593118 0.5661735293560187 0  0.7479947820249944 0.5918639379110272 0  0.6183998468837233 0.6963744514803952 0  0.6437606404071584 0.3049272789372465 0  0.7489347743276591 0.4329193838039657 0  0.7484474063593368 0.5123498800028118 0  0.5649611394633866 0.30167521974881 0  0.4353596497021914 0.3037971365295485 0  0.4338254074971861 0.6965116968811723 0  0.5394017289018129 0.6974270802987766 0  0.2517574314725348 0.4868605754117249 0  0.252492750936715 0.3808576168809936 0  0.4870820417324797 0.3052960386274645 0  0.2587935841426079 0.6173193104633223 0  0.7413595390404305 0.3782783347700333 0  0.486880863597222 0.6975429297449436 0  0.6715188549598398 0.6938840559149475 0  0.3014350751624669 0.3099885973251413 0  0.6990916869430902 0.311139905319387 0  0.3022008827380091 0.6924716444999471 0  0.74354680881806 0.6474822278324145 0  0.2566020728083572 0.3277353968619577 0  0.259347122193766 0.6707401476153306 0  0.7246072667106569 0.6914348707274941 0  0.7445001081875073 0.3266597420190498 0  0.3286555715945103 0.6934586447167763 0  0.3415953200599878 0.670346182649641 0  0.3678193605630839 0.6708403759677174 0  0.3538091318778984 0.6466477925501612 0  0.3810625913375186 0.6469223658784268 0  0.366033115610514 0.6199266037178032 0  0.3984410765706081 0.6201856120743424 0  0.3803184819014543 0.5878354430588514 0  0.3341862071197472 0.618931089544304 0  0.4195982818040217 0.5875098815683459 0  0.3970321748420692 0.5504108645467619 0  0.3514450566219858 0.5567643032937234 0  0.3711315747820749 0.5150870654308719 0  0.3284924190665736 0.5175528705165368 0  0.3432624445639289 0.4805518430051281 0  0.3882514055996483 0.4751992616789794 0  0.3638850706466813 0.4404386158838497 0  0.4051436225939563 0.4354200832329355 0  0.3815812826585734 0.4026054604804613 0  0.419654451284937 0.3912750137832825 0  0.3422436498082609 0.4030438902576824 0  0.3915494616792666 0.3686936637494631 0  0.4299527659749073 0.6217905947270111 0  0.4597672816782075 0.595198998562397 0  0.48105062741124 0.6218720131719315 0  0.5024614199792931 0.5966828577408622 0  0.5228852377965999 0.6220856629835113 0  0.54412392802405 0.5973295890491706 0  0.5641941449249881 0.6232560187835571 0  0.5852024958941239 0.5989047119782659 0  0.6060163861522232 0.6278619164618749 0  0.625640771061149 0.5938159719004987 0  0.6068169310417351 0.5
[...]
<PointData  Scalars="u"> 
<DataArray  type="Float64"  Name="u"  format="ascii">-1.3639253735697039e-19  -3.1442802444032842e-19  -3.1485623829415931e-19  -3.1074844620229215e-18  1.4553691452920929e-19  -1.5208782324453590e-20  -1.2850427944701746e-20  3.0243975156800612e-20  -9.5556718057671020e-02  -9.5559007773642693e-02  -9.5604188597135598e-02  -9.5721933976980561e-02  1.2973921079241671e-01  1.2742173774665642e-18  7.1493643535413297e-20  -2.0901458270358888e-17  -6.8383367511651809e-18  4.6447467650934522e-19  -3.2143872356915721e-17  -2.0716524729957470e-18  -1.0360979249529377e-17  -1.4751038782577299e-17  -1.0697438483523899e-17  -6.1715244474541256e-18  1.9699178728421691e-17  3.5011276784738759e-18  -5.1096148421281649e-18  7.7919904463976848e-18  -1.9515426600481047e-17  7.9906964752581461e-18  -5.9086377559322875e-19  -3.5450207659873882e-18  1.1694263760647051e-18  1.0426710175327787e-17  -1.5376425422767622e-18  -9.9847597617714566e-18  -1.5354986655591048e-17  1.3867014367159811e-17  1.2418380716058370e-17  1.6401481892262231e-17  -1.2251826187303275e-18  -2.2928850918584971e-18  -8.1003352638943938e-19  -1.5231153524048646e-17  -4.6842947132781216e-18  -3.0896629629901721e-18  -3.6897035122361959e-18  -5.9763817618505267e-18  -6.1272639418787087e-18  1.2018147263131412e-17  1.0438657435713948e-18  2.4082806714441274e-18  -6.6081794797226709e-18  -7.1927516917219862e-18  1.1708330203809964e-17  -4.1929036166345178e-18  -4.2315963833247296e-18  -8.2391179392086700e-19  -1.4453193502615803e-17  1.1897882254839720e-18  3.9791362079380686e-18  -1.2336012854744188e-17  -1.1823873130117613e-17  -2.0581429207821773e-18  -8.1285533730592368e-18  4.2866791410170350e-18  -1.4689157050776557e-18  -9.3698099533565026e-18  -1.2047606618137656e-17  -8.5389055591978461e-18  2.4673152922987574e-18  5.6498570216274195e-18  -4.4224309302917968e-18  -1.5818339655449768e-18  -8.7396271054800923e-18  -5.2134500590670733e-18  -4.6975679763345771e-18  -2.1251541751978679e-18  -1.5899659910852533e-17  -8.4029714728071233e-18  -3.9530773605346141e-19  6.6910183072833265e-18  -7.8180653999526116e-18  -1.0295054101391749e-17  -1.7518608489086524e-18  2.4604914842230858e-18  -1.5746159403369192e-18  -1.3110853431130615e-18  1.6155477946425540e-18  -3.5291415202314965e-20  3.7057022032879038e-20  7.4949948563753856e-20  -3.8468770723208073e-19  -2.6910984559493968e-18  -1.1379270199867290e-19  -6.3324889457667609e-19  -3.2199952306766655e-18  -1.3553381236761998e-18  -1.3695674421602051e-18  -2.0714675830072091e-18  -1.5990925146988647e-18  -2.9210206858860418e-19  2.0709537757872049e-18  7.1774182607747412e-19  -1.9236721608525377e-19  -9.9726324589089691e-20  -1.5541740077242382e-18  -9.3226877288043669e-21  4.0959140973849871e-19  -5.6296179332402531e-19  -8.1496921577898736e-20  4.6160554297149626e-20  1.8891728610779190e-20  -1.5001653270283694e-19  4.4582270584381584e-19  1.1025328037553775e-18  7.9739220052212948e-20  -1.7569452880487310e-18  -1.5021829566410806e-18  7.5417872728761936e-19  2.3951926773190696e-18  1.8258794124763475e-18  1.5933484477903191e-19  -2.1927619146727859e-19  -5.2393394833333038e-19  -8.6543535439790031e-19  -9.1442060901144620e-19  -3.5224016360948049e-19  -6.7985764523327363e-19  -5.5526793986144298e-19  3.4664706751697370e-20  1.1198299814509748e-18  5.7085996942765764e-19  -5.0564529938443370e-19  -3.2075020863023770e-20  -1.3294053913313128e-19  -1.8333700717876552e-19  7.2213050285068652e-20  -1.0214994690684792e-18  -5.4415629271064449e-19  9.6165527453311476e-19  -1.4701648307447532e-19  -4.9160510777668762e-19  -6.0278948384421350e-19  -1.4141318300065601e-18  -9.7340529216115537e-20  3.8258392295411744e-19  -1.5463713893388140e-18  -1.6440186603192582e-18  -7.4894735956111829e-19  -4.2180483345518544e-19  1.9283421255009888e-19  -6.6960520027780541e-20  -1.3728643658895295e-18  -1.7630079479749658e-18  -1.1246763734304322e-18  -1.7368874124827621e-19  9.4213669832623460e-20  -3.2622192406375308e-20  -6.8781254808097470e-20  5.2747510899179519e-19  2.9081258572735426e-19  -9.5834078135537053e-20  -1.5191027726807591e-18  -1.3051335147647039e-18  -8.4766638918458273e-19  -2.5875390004369782e-19  -1.4177617712050868e-18  -2.1453217841692692e-18  -1.3204006720187779e-18  1.0912846904156916e-19  7.4802476711363778e-19  -7.3954473714957315e-19  -1.4861418187189039e-18  -3.4233360748649158e-19  3.0126725491698282e-19  -2.1134631310044251e-19  -1.3518758985312761e-19  1.1891592158822025e-19  2.1928952868999465e-20  -3.0873920185102784e-20  -8.4838206033598831e-02  -7.3582101031131941e-02  -6.3384741887908463e-02  -5.4923698239797258e-02  -4.8494160415260459e-02  -4.3811425163743180e-02  -4.1095842737230437e-02  -4.0083540829665025e-02  -4.1074403953105257e-02  -4.3891270446165941e-02  -4.8463745876507452e-02  -5.4834196923280912e-02  -6.3216301461016838e-02  -7.3492298486215302e-02  -8.4734818339735840e-02  -8.9592386913402544e-02  -8.1232185631690032e-02  -7.2647472526646745e-02  -6.5031095283920412e-02  -5.8593617128941691e-02  -5.3364426777653219e-02  -4.9218276619483359e-02  -4.6235383692702525e-02  -4.4529722794537527e-02  -4.3905274682123026e-02  -4.4453758065291837e-02  -4.6268171452273341e-02  -4.9030687647103582e-02  -5.3453622597335902e-02  -5.8737752773067302e-02  -6.5094287483363086e-02  -7.2658505093122161e-02  -8.1277971220358111e-02  -8.9612893019936135e-02  -8.4804364408363558e-02  -7.3599784724111175e-02  -6.3389793701999556e-02  -5.4937660342312143e-02  -4.8536511525526932e-02  -4.3835050679216725e-02  -4.1026151752913881e-02  -4.0110558091125882e-02  -4.1012638784887444e-02  -4.3732223977921127e-02  -4.8455831109966790e-02  -5.4886838758094025e-02  -6.3397047627024111e-02  -7.3662032871196742e-02  -8.4895938237000854e-02  -8.9772887991364667e-02  -8.1392995317224243e-02  -7.2824366631668969e-02  -6.5194413628893250e-02  -5.8846485807753132e-02  -5.3512357450191901e-02  -4.9061983141943641e-02  -4.6269809959934897e-02  -4.4431594452095442e-02  -4.3798926737132954e-02  -4.4433841490609839e-02  -4.6189912076973684e-02  -4.9244484457500785e-02  -5.3376117153001293e-02  -5.8599384325331683e-02  -6.5053326197661229e-02  -7.2680492121381265e-02  -8.1231944234800832e-02  -8.9582512286871599e-02  -1.7126274196845377e-02  -4.3556122954725388e-03  -1.7128386840765165e-02  -4.4751004436809193e-03  -1.2613195342683957e-02  -1.0791669639834871e-02  -1.7270541378235971e-02  -6.0324707500833078e-03  2.2251491231799502e-03  -7.9847231360476016e-04  1.3913150967316058e-03  7.4359905054922665e-04  3.1235921790844041e-03  2.6474585722622785e-03  -2.2384354633201698e-02  7.9172759454085792e-03  -1.6653539906050056e-02  -1.8829677054050236e-02  4.6618704588900113e-03  -2.6868184384637474e-02  -3.6701054169465938e-02  -3.5838357953761169e-02  -3.8182230509004073e-02  -3.4605220804399865e-02  -4.9014262327871531e-02  -4.6413999698332584e-02  -5.1213916118692200e-02  -5.0044592897908649e-02  -2.6202521527453837e-02  2.5366002326115070e-05  9.7582578996032402e-03  2.6488164510198454e-02  3.7401036678944663e-02  5.3870925039206097e-02  6.6645293805207853e-02  7.9265791061813931e-02  3.8894294453624863e-02  9.3586376566434093e-02  1.0175286477970188e-01  7.7782184008584027e-02  9.6614600273107254e-02  7.0797345186147234e-02  8.0359843260325317e-02  1.0372927254131822e-01  8.3515552924847705e-02  9.9860102714436044e-02  7.4759520898902587e-02  8.1346307696091844e-02  5.5764406629756159e-02  5.5443077737441254e-02  7.4261417918064371e-02  9.7921508135670771e-02  8.1281047943864343e-02  9.9870026225620287e-02  8.0694220302634775e-02  9.6034888540061841e-02  7.4054865100100023e-02  8.5898993301347620e-02  5.9163759589579694e-02  7.3467191774180401e-02  9.7778879461595775e-02  7.7550651077354815e-02  9.7300146545524852e-02  5.3268700658917437e-02  5.1496183709164291e-02  3.9683157346555385e-02  4.5133975352143633e-02  5.1894723451689842e-02  3.9682111686301619e-02  5.9032149898221420e-02  8.3912308707535910e-02  1.7968021846363178e-02  3.2979694266170589e-02  4.9114881657981287e-02  4.2980505277429200e-02  5.5747198719241886e-02  8.6820281751970721e-02  5.2577284461504732e-02  7.9908709805115039e-02  1.0655568926597934e-01  9.1753578964200638e-02  6.8139098900856815e-02  7.3074681081899781e-02  1.0212315092351310e-01  7.6791793572672060e-02  5.2923426584701630e-02  5.2618891474213780e-02  6.8603559469737882e-02  3.1301538919300424e-02  2.5791605129468230e-02  5.9789184847190320e-03  5.4748223087111988e-03  1.1412760271423540e-01  2.5732844767796165e-02  2.7258015262598145e-02  2.2175690507851904e-02  3.9248902608370773e-02  4.5324962812907143e-03  -1.3829623988064396e-03  1.4636609412461095e-02  4.9190848836059460e-02  2.6423140318020243e-02  1.5414524029191948e-02  3.2999890574888717e-02  5.7645198567717867e-02  3.4395896854931114e-02  2.8321319839600616e-02  5.3667351976140955e-02  3.2007751338585445e-02  1.0657246844102141e-02  2.0093565488144534e-03  1.4822002536353275e-02  2.0315375189892838e-02  2.9062333809202652e-02  1.1240669987139532e-02  5.0216233892792769e-02  1.1784567859857914e-01  9.5278107967770743e-03  1.1787929624713858e-01  7.2393455904074838e-02  4.4043214565533027e-02  6.7705791667417803e-02  4.1665035046082585e-02  2.2280136102430691e-02  1.7726664562681023e-02  3.1374292984024818e-02  4.8120583680799571e-02  2.9746073217350393e-02  2.7466844321657843e-02  1.0597461758687021e-01  -1.4563226659663125e-02  -1.7033018681071814e-02  4.4359317552314204e-02  1.9497494656813753e-02  2.4757622767066022e-02  4.0092278208033662e-02  3.0202574031165243e-02  8.7936532109410097e-03  2.6805571161970132e-02  9.0695542465008636e-03  6.8291662196507865e-03  -1.0981769983421227e-02  -2.6852163156823285e-02  -2.5319853385459785e-02  2.2439503829040666e-02  4.9967233012963609e-03  2.8701456366834930e-03  -1.0507087681686959e-02  -3.0274796542946784e-02  -3.4363257561218469e-02  -3.4062768397020689e-03  2.3011505005803363e-02  4.5088658718732633e-02  -1.7875954724353004e-02  -9.4236959446771136e-03  -2.1448668493982923e-04  -2.6488984697798996e-02  1.2639976579045290e-03  4.4878253218221531e-03  -1.0252771990706915e-02  -3.3907691654519123e-02  -1.0632381339388656e-02  3.6952404972703623e-03  -1.1325942925843659e-02  1.0661132109025619e-02  -4.6795306289554332e-03  1.4066184404063061e-02  -5.5289183382650547e-04  -1.8998823426727734e-02  -3.8389619282947131e-02  -2.8595047071813970e-02  5.6672504732657343e-03  3.4384645606700973e-02  -1.2893537969758718e-02  -1.0053516797600227e-02  8.5397098763921218e-04  -5.0915255566955774e-02  -5.1273174193488674e-02  -4.9680739441969227e-02  -5.1406452582501400e-02  -3.1623918873702425e-03  1.0741017108165009e-01  1.2129468094039175e-01  2.3499250104738773e-02  -1.0662012893002828e-02  -1.3163467637274048e-02  -1.1496745964053090e-02  -3.5714333072931204e-02  1.7376995026754339e-03  -2.5800411239318296e-03  2.9106731077215561e-02  4.3100482793416509e-02  3.7869765822183209e-03  4.5760051553946135e-02  1.1554660031192127e-01  1.1443151636006339e-01  8.9267493002455733e-02  1.4023554573938366e-02  -1.8637597994578781e-03  2.6249078765791387e-02  1.5555849122972580e-02  2.5657679589606300e-02  -2.4449344782378828e-04  3.8563347179366026e-04  1.1169839379534924e-01  -1.5633069523096163e-02  2.2858883146274520e-02  1.4334519738466339e-02  5.2102142762802041e-02  1.5516071545166896e-03  4.8333758323515788e-02  8.9309608617942335e-02  -3.2988507682016224e-03  1.2408963707378051e-01  6.0880612841120084e-02  -3.3468951490736233e-02  4.5211265431825950e-02  2.4332599484958958e-02  1.9331168185281182e-02  1.0844527955795048e-01  -2.7745373863102829e-03  6.6745909391488127e-03  2.5263023517529001e-02  1.2632725989992322e-01  1.5304542519588214e-02  2.3316686231218797e-02  1.2144428697449236e-01  5.7463479940151413e-02  2.7120895231674810e-02  1.2588535757647831e-01  4.9508221401751352e-02  9.8496183101160085e-03  3.0211230277836596e-03  3.2297803471085448e-02  5.8018047590524931e-02  2.3066698377247664e-02  -4.4779441525515063e-03  4.6069258793073928e-02  -6.2378605935212002e-02  -6.2487899797738097e-02  -6.2455580054932625e-02  -6.2586619271120636e-02  6.5802129730703415e-03  -1.5728719934057972e-02  1.1554262916544379e-02  -4.1831944523680357e-03  2.0126728668036616e-02  6.1450454201269190e-02  -1.2774496484266439e-02  8.5279703994679021e-04  3.4894826363557632e-02  6.8854599677004844e-02  5.6814706145559453e-02  7.1839760939593572e-02  6.2847156978190748e-03  6.9027073446180032e-02  2.3889896014568333e-02  7.5968308384734867e-02  1.2453518519622613e-01  3.0220147361343631e-02  5.3639644762521213e-02  3.6864636555175585e-02  2.4829484947146704e-02  6.4033789346453804e-02  6.8285476378071766e-02  1.1677050682396363e-01  -2.6091601298065269e-02  -7.2919212297698419e-02  -7.3344293646139869e-02  -8.3172879802901722e-02  -1.0058925168227736e-01  -8.3614785652191936e-02  -1.0139081383584518e-01  -7.3262118508251720e-02  -8.2788035204357957e-02  -7.3229902886055867e-02  -8.3171433408082043e-02  -1.0057574100834926e-01  -1.0067227131911981e-01  -4.7523258913379704e-02  -4.1561175692998185e-02  -5.1912218718945392e-02  -4.3833818044212033e-02  -6.7091671894244170e-02  -8.9570317621737963e-02  -8.9571334800079047e-02  -6.6728599795886676e-02  -1.0801195204434479e-01  -1.1641681799411070e-01  -7.0180049219993698e-02  -6.9995959502472477e-02  -9.8346501797503455e-02  -1.1496723840078486e-01  -1.2240893600653940e-01  -1.2388173657153785e-01  -1.2867386857137683e-01  -1.3018880499771310e-01  -4.7501963528550184e-02  -4.5635515436817618e-02  -4.7177229817961214e-02  -4.5815247661559907e-02  -4.4443053577479380e-02  -4.2631117304573717e-02  -4.6013429772879227e-02  -1.3296459158020726e-01  -1.3438310522978508e-01  -1.2028440519602861e-01  -1.1309197502758038e-01  -4.0310580185062075e-02  -4.1764945011269469e-02  -3.9930702469662398e-02  -3.6074981178020493e-02  -3.9071250214255331e-02  -3.6261297337288834e-02  -4.5476706934526726e-02  -4.1468159910456853e-02  -1.1642295324360954e-01  -1.1013622481541761e-01  -4.8162360004094781e-02  -4.1944105120248182e-02  -4.8316529894607288e-02  -1.1346354723834430e-01  -1.1772590865658354e-01  -1.2209704954136827e-01  -1.2571729182658894e-01  -1.2988132934964869e-01  -1.3152721113564114e-01  -1.2648571003732037e-01  -1.3441416676111320e-01  -1.3324901086917537e-01  -1.3256237201122328e-01  -1.1346435256522787e-01  -1.1800582019486938e-01  -1.2213908234126608e-01  -1.2570429117115567e-01  -1.2097773411403712e-01  -1.2985435415117827e-01  -1.3135817385995160e-01  -1.3431446517092152e-01  -1.3319173634537970e-01  -1.3258163898752054e-01  -8.1277034754207667e-02  -1.0781279088837223e-01  -1.1629061190909694e-01  -1.1483477380724599e-01  -1.2231894788624192e-01  -1.2375266065332440e-01  -1.2852427890334167e-01  -1.3008861384247353e-01  -1.3282124112111582e-01  -1.3438033961918000e-01  -6.4740422994899932e-02  -6.5246507174750529e-02  -7.5220648779353999e-02  -7.5382820457496225e-02  -1.2572761160266877e-01  -1.3409086687402375e-01  -1.3337494830808699e-01  -1.3298069043201977e-01  -1.3429256035306300e-01  -1.3358933463864811e-01  -4.7119814121070039e-02  -1.3311840920115245e-01  -1.3393746721120917e-01  -1.3298209941830869e-01  -1.3321827774589909e-01  -1.3386229699559582e-01  -1.2943574587776102e-01  -8.0535235885553641e-02  -1.2774697794289624e-01  -1.2821177085593968e-01  -4.1496226863797163e-02  -3.7974436929849552e-02  -4.1260443905067196e-02  -1.2706469105048857e-01  -1.2772972051724363e-01  -1.0710450735107441e-01  -1.0178877042037189e-01  -1.3008092484109535e-01  -1.3158600708446247e-01  -1.2989169357012612e-01  -1.3148692479181162e-01  -1.2697810086476277e-01  -1.3061474678271803e-01  -1.2467401250103212e-01  -1.2709464121442732e-01  -1.2194399978240503e-01  -1.2304455085755901e-01  -1.2735449112824818e-01  -1.3032071933181155e-01  -1.2457589105956707e-01  -1.2650735356867976e-01  -1.2152221402393328e-01  -1.2291330165009558e-01  -1.1876805745085012e-01  -1.1993848267156437e-01  -1.1629574766364990e-01  -1.1792018277346566e-01  -1.1485319479196292e-01  -1.1716932681979675e-01  -1.1433748737938770e-01  -1.1762451481952933e-01  -1.1892226663799664e-01  -1.2005079353861264e-01  -1.1634523620164310e-01  -1.1805055385263050e-01  -1.1487556319367467e-01  -1.1735350385228405e-01  -1.1428597652847509e-01  -1.1779614811906859e-01  -1.2598415882758865e-01  -1.2454830129885557e-01  -1.2322221109854541e-01  -1.2330420522576613e-01  -1.2582967852142737e-01  -1.2395803641707781e-01  -1.1490063388312519e-01  -1.1923372339337425e-01  -1.1594709501924381e-01  -1.2154744499371320e-01  -1.1750668911373049e-01  -1.1479579173142744e-01  -1.1930751388518983e-01  -1.1572216520697574e-01  -1.2163262186028660e-01  -1.1740859814184514e-01  -1.2895142081712299e-01  -1.2565329670450459e-01  -1.1988191135696977e-01  -1.1570360345330291e-01  -1.1949610088610650e-01  -1.1537895842738562e-01  -1.1905119614359787e-01  -1.1037116294949502e-01  -1.1230740856280245e-01  -1.1081526379219436e-01  -1.1303905626200852e-01  -1.1224667983953027e-01  -1.0282915428271400e-01  -1.1188173691992954e-01  -1.2268098174536302e-01  -1.1431334988846084e-01  -1.1252431374059595e-01  -1.0274901691512382e-01  -1.2328095854074281e-01  -1.1245769148610223e-01  -1.1807838645777763e-01  -1.1148034973911106e-01  -1.1816606233319785e-01  -9.0521833364763868e-02  -9.4088321843309300e-02  -8.5963242847942503e-02  -9.7477936656508987e-02  -1.0785094914260548e-01  -1.1625688441702887e-01  -8.8922252366436694e-02  -1.2790276673119494e-01  -3.3361621049978772e-02  -1.0465683506441674e-01  -1.2927198775374699e-01  -1.0707754498140361e-01  -8.3209821648607574e-02  -9.1498600045681763e-02  -1.0694367253533960e-01  -1.1704099844923099e-01  -1.1707867564677332e-01  -1.0661898951130386e-01  -1.1323322274277665e-01  -1.0623568820076384e-01  -1.1083020022684753e-01  -1.0430701481707999e-01  -1.0365624960653642e-01  -9.7883323111174564e-02  -1.1144925580768417e-01  -9.7052269985260536e-02  -9.3221620503009597e-02  -9.0876708978091386e-02  -8.9586431018658083e-02  -8.7133609494871672e-02  -8.7555761298074353e-02  -8.4958134985962733e-02  -1.1051577175537136e-01  -1.1504598221966879e-01  -1.0720632282001964e-01  -1.1609084576672926e-01  -9.3576218989690374e-02  -8.8932445274259753e-02  -9.0747390768721459e-02  -8.7666052618257675e-02  -1.0723424980330189e-01  -1.0933333628423041e-01  -8.1373311979222845e-02  -3.0433216090398899e-02  -3.6478951296505337e-02  -3.3573589439578638e-02  -1.1329498261700370e-01  -1.0697441998062733e-01  -1.2186163705164085e-01  -1.1063004445792354e-01  -1.1326171436666603e-01  -9.2557714666539156e-02  -9.6546558640115618e-02  -9.4489969621504202e-02  -9.8132066085140329e-02  -1.0318806917920341e-01  -1.0783468046084872e-01  -1.0119579495208951e-01  -9.2697245848587018e-02  -9.4291187788399927e-02  -9.2771402685431006e-02  -8.9330436847738601e-02  -8.8903694911713682e-02  -8.8204185486476003e-02  -8.3326049640605401e-02  -8.7013822284928433e-02  -8.3894535307209278e-02  -8.6299541445123903e-02  -8.6258947705392802e-02  -8.9764986257692470e-02  -8.5692650969416737e-02  -9.3535207117028840e-02  -9.0795333390147379e-02  -9.7468345638659512e-02  -9.6796318395294456e-02  -1.0461439156210062e-01  -9.8877928135387858e-02  -1.1248573664319576e-01  -9.8826772924821393e-02  -1.1421860093493194e-01  -1.0435446700414620e-01  -1.1095046665422727e-01  -1.0189869812008936e-01  -1.2738188347294954e-01  -1.1895265971465438e-01  -8.4746958340469816e-02  -8.8390983607109772e-02  -1.0388389168138286e-01  -1.0145978173658891e-01  -1.1914309944072210e-01  -8.1999171259470996e-02  -1.2423693221674940e-01  -8.0628547543405857e-02  -9.1738508788082346e-02  -8.7608386862257054e-02  -1.0945806076036933e-01  -9.1602852641269550e-02  -1.1142698547264274e-01  -7.9105927785493135e-02  -1.0186681057758573e-01  -1.0245410080397821e-01  -9.1382670346876999e-02  -9.1843942884938592e-02  -1.0046969489293797e-01  -8.4805660465913812e-02  -8.0685028604726705e-02  -9.0522028599299573e-02  -9.7562964525970283e-02  -1.0134336741065711e-0