<?xml version="1.0"?>
<VTKFile type="UnstructuredGrid"  version="0.1"  >
<UnstructuredGrid>
<Piece  NumberOfPoints="1297" NumberOfCells="2496">
<Points>
<DataArray  type="Float64"  NumberOfComponents="3"  format="ascii">0 0 0  0 1 0  1 1 0  1 0 0  1.1 -0.1 0  -0.1 -0.1 0  1.1 1.1 0  -0.1 1.1 0  0.2607623697140711 0.6710825740601386 0  0.2578051880499628 0.3307666122764692 0  0.740860638268374 0.33004119282797 0  0.7426086745547008 0.6680952653973996 0  0.5003000943839668 0.5000876367865905 0  0 0.9499999999997918 0  0 0.8999999999995836 0  0 0.8499999999996529 0  0 0.7999999999999998 0  0 0.7500000000003466 0  0 0.7000000000006934 0  0 0.6500000000010401 0  0 0.6000000000013869 0  0 0.5500000000017335 0  0 0.5000000000020587 0  0 0.4500000000018723 0  0 0.4000000000016644 0  0 0.3500000000014564 0  0 0.3000000000012483 0  0 0.2500000000010403 0  0 0.2000000000008322 0  0 0.1500000000006241 0  0 0.100000000000416 0  0 0.05000000000020799 0  0.04999999999989965 0 0  0.09999999999981467 0 0  0.1499999999997036 0 0  0.1999999999995579 0 0  0.2499999999994121 0 0  0.2999999999992664 0 0  0.3499999999991206 0 0  0.3999999999989749 0 0  0.4499999999988292 0 0  0.4999999999986943 0 0  0.5499999999988151 0 0  0.5999999999989468 0 0  0.6499999999990784 0 0  0.69999999999921 0 0  0.7499999999993417 0 0  0.7999999999994734 0 0  0.8499999999996051 0 0  0.8999999999997368 0 0  0.9499999999998684 0 0  1 0.04999999999989965 0  1 0.09999999999981467 0  1 0.1499999999997036 0  1 0.1999999999995579 0  1 0.2499999999994121 0  1 0.2999999999992664 0  1 0.3499999999991206 0  1 0.3999999999989749 0  1 0.4499999999988292 0  1 0.4999999999986943 0  1 0.5499999999988151 0  1 0.5999999999989468 0  1 0.6499999999990784 0  1 0.69999999999921 0  1 0.7499999999993417 0  1 0.7999999999994734 0  1 0.8499999999996051 0  1 0.8999999999997368 0  1 0.9499999999998684 0  0.9499999999997918 1 0  0.8999999999995836 1 0  0.8499999999996529 1 0  0.7999999999999998 1 0  0.7500000000003466 1 0  0.7000000000006934 1 0  0.6500000000010401 1 0  0.6000000000013869 1 0  0.5500000000017335 1 0  0.5000000000020587 1 0  0.4500000000018723 1 0  0.4000000000016644 1 0  0.3500000000014564 1 0  0.3000000000012483 1 0  0.2500000000010403 1 0  0.2000000000008322 1 0  0.1500000000006241 1 0  0.100000000000416 1 0  0.05000000000020799 1 0  -0.1 1.05000000000004 0  -0.1 1.000000000000079 0  -0.1 0.9500000000001624 0  -0.1 0.9000000000003032 0  -0.1 0.850000000000444 0  -0.1 0.8000000000005848 0  -0.1 0.7500000000007256 0  -0.1 0.7000000000008665 0  -0.1 0.6500000000010508 0  -0.1 0.6000000000012352 0  -0.1 0.5500000000014196 0  -0.1 0.500000000001539 0  -0.1 0.4500000000014195 0  -0.1 0.4000000000013 0  -0.1 0.3500000000011588 0  -0.1 0.3000000000010178 0  -0.1 0.2500000000008986 0  -0.1 0.2000000000007579 0  -0.1 0.1500000000006174 0  -0.1 0.1000000000005272 0  -0.1 0.05000000000040083 0  -0.1 2.671196597248127e-13 0  -0.1 -0.0499999999998666 0  -0.0500000000000906 -0.1 0  -1.730560139634463e-13 -0.1 0  0.04999999999975802 -0.1 0  0.09999999999961506 -0.1 0  0.1499999999994613 -0.1 0  0.199999999999302 -0.1 0  0.2499999999991446 -0.1 0  0.2999999999990088 -0.1 0  0.3499999999988296 -0.1 0  0.3999999999986936 -0.1 0  0.4499999999985143 -0.1 0  0.4999999999984002 -0.1 0  0.5499999999985247 -0.1 0  0.5999999999986493 -0.1 0  0.6499999999987955 -0.1 0  0.6999999999989417 -0.1 0  0.7499999999990659 -0.1 0  0.7999999999992116 -0.1 0  0.8499999999993573 -0.1 0  0.8999999999994526 -0.1 0  0.949999999999584 -0.1 0  0.9999999999997226 -0.1 0  1.049999999999861 -0.1 0  1.1 -0.0500000000000906 0  1.1 -1.730560139634463e-13 0  1.1 0.04999999999975802 0  1.1 0.09999999999961506 0  1.1 0.1499999999994613 0  1.1 0.199999999999302 0  1.1 0.2499999999991446 0  1.1 0.2999999999990088 0  1.1 0.3499999999988296 0  1.1 0.3999999999986936 0  1.1 0.4499999999985143 0  1.1 0.4999999999984002 0  1.1 0.5499999999985247 0  1.1 0.5999999999986493 0  1.1 0.6499999999987955 0  1.1 0.6999999999989417 0  1.1 0.7499999999990659 0  1.1 0.7999999999992116 0  1.1 0.8499999999993573 0  1.1 0.8999999999994526 0  1.1 0.949999999999584 0  1.1 0.9999999999997226 0  1.1 1.049999999999861 0  1.05000000000004 1.1 0  1.000000000000079 1.1 0  0.9500000000001624 1.1 0  0.9000000000003032 1.1 0  0.850000000000444 1.1 0  0.8000000000005848 1.1 0  0.7500000000007256 1.1 0  0.7000000000008665 1.1 0  0.6500000000010508 1.1 0  0.6000000000012352 1.1 0  0.5500000000014196 1.1 0  0.500000000001539 1.1 0  0.4500000000014195 1.1 0  0.4000000000013 1.1 0  0.3500000000011588 1.1 0  0.3000000000010178 1.1 0  0.2500000000008986 1.1 0  0.2000000000007579 1.1 0  0.1500000000006174 1.1 0  0.1000000000005272 1.1 0  0.05000000000040083 1.1 0  2.671196597248127e-13 1.1 0  -0.0499999999998666 1.1 0  0.2436453796989808 0.6553096610379415 0  0.2306689645470719 0.6338902771191225 0  0.2199647162678136 0.6111268031032939 0  0.2115116474788878 0.5883630988647667 0  0.2050981587733515 0.5662720407483486 0  0.2000211581571917 0.5447210164308109 0  0.196629615773656 0.5230814126725736 0  0.1960394012153431 0.5015612123582156 0  0.1965107899464624 0.4800697410566112 0  0.1994268359877962 0.4581464572314062 0  0.2040149439566082 0.4362441706197148 0  0.2102531923868486 0.4142879558860065 0  0.2178778072427966 0.3917330040554784 0  0.2280354136664764 0.368619853107123 0  0.2407577897710361 0.3469674748802664 0  0.276743026381242 0.3168294348504145 0  0.3004074378483353 0.3064673714421577 0  0.325717360463905 0.2977271914734308 0  0.3513787009519649 0.2903429357395432 0  0.3767167954620833 0.2841563768033271 0  0.4015415667244189 0.2787056691718671 0  0.4260986317081926 0.2743110640035859 0  0.4506378938317788 0.2709124229673933 0  0.4752162784714599 0.2689844924650091 0  0.4996422696191565 0.2683814918102175 0  0.5240370050822684 0.2691421802382522 0  0.5484915744316142 0.2711818705634418 0  0.57313323329345 0.2743497412799706 0  0.5977862635379714 0.2788676453650158 0  0.622849979161027 0.2841194620170709 0  0.6482732619231795 0.2902902639953904 0  0.6737461934803575 0.2974727563988756 0  0.6987458760051743 0.3059750401589982 0  0.7220925820194706 0.3160461626283207 0  0.7573901016324879 0.3460541644663628 0  0.7706134083561405 0.3669315502218967 0  0.7813814477317388 0.389621220722903 0  0.7896296889761001 0.4121829015452944 0  0.7962301194683019 0.4342326219961726 0  0.8007814675650294 0.4561214740439462 0  0.8033982329902574 0.4776505021130122 0  0.8039895081028304 0.4987296309344793 0  0.8029027442126613 0.519717889271523 0  0.8002202432599973 0.5408336204141708 0  0.7959798671394532 0.562428948382668 0  0.790112851444398 0.5843861393571461 0  0.782412589761093 0.6074632263399542 0  0.7721349844196255 0.6304750359253168 0  0.7592824918486183 0.6518656760110834 0  0.7238161779773599 0.6822477212908969 0  0.700353866883493 0.6923248219103976 0  0.6756570547646744 0.7011373035909451 0  0.6501954230628467 0.7089419117451625 0  0.6247522908965171 0.7156440431508598 0  0.5995120321663792 0.7212834591351451 0  0.5748034137705658 0.7259901461016667 0  0.5502388051953402 0.7292639690845329 0  0.5258947258771417 0.7313117296329439 0  0.5016452023772368 0.7319842830218903 0  0.4773426288377773 0.7313484648947317 0  0.4529216829918073 0.72934322164275 0  0.4285120978846007 0.7260641459739724 0  0.4038412783456003 0.7217936600583478 0  0.3787223291899819 0.7165967560713034 0  0.3534044980067963 0.7104432111577611 0  0.3278822982459779 0.7032431999781791 0  0.3027566686881792 0.694745801626605 0  0.2794188764859201 0.6846186964103237 0  0.3616242720075646 0.3127109127056405 0  0.2317627638139753 0.4459235275035371 0  0.3636289229816177 0.6881219999130261 0  0.2326486447834464 0.5564995105270212 0  0.76575470052148 0.5750628068850746 0  0.6137736067987805 0.6937696209348638 0  0.6367077406225184 0.311819682446523 0  0.7703083541738724 0.4432857405190507 0  0.7736813912348468 0.5090005548131655 0  0.5610561844347572 0.2973009413796533 0  0.4384185883334356 0.2994605960907855 0  0.439091886485192 0.701268640970524 0  0.5385678980583338 0.7041618965470622 0  0.2269299006027519 0.4902347900458703 0  0.2405677768446921 0.4009381594184344 0  0.4874002331367308 0.2983052459047465 0  0.249392033055271 0.5999798340739135 0  0.7510050208832856 0.3970811431599088 0  0.489167006178402 0.7054078287551084 0  0.6651914778377285 0.6805748546049387 0  0.3092895133717248 0.328949722333091 0  0.6903907868249675 0.3299628900090116 0  0.3125237265986611 0.6749118612113602 0  0.7480332149576753 0.622301852503092 0  0.2603585347338383 0.3560929226198798 0  0.265462005360713 0.6445690453887777 0  0.7156944408808779 0.6641169853559736 0  0.7390767166839319 0.3546079660746522 0  0.3379981487858348 0.6819885632267014 0  0.348052312421859 0.6610062696865607 0  0.3739221018647506 0.6657735080574515 0  0.3576317218830168 0.6391342202625143 0  0.3849582218464743 0.643020749259976 0  0.3672613129644631 0.6143081827641531 0  0.4003178605421358 0.6177226952668394 0  0.3794378627860984 0.5842021686335884 0  0.3340103505146058 0.6095747782061359 0  0.4199215524147166 0.5863984944586448 0  0.3949505047058353 0.5489024602069924 0  0.3464296674750977 0.5529266370813699 0  0.3661014770294788 0.5146105042216483 0  0.31885722555192 0.516463366147099 0  0.3352415152713177 0.482848197644307 0  0.3844389425011578 0.4767916609229397 0  0.3593117611923095 0.4448058902787723 0  0.4032100006240662 0.4377298676903169 0  0.3802553017966301 0.4071417777674823 0  0.4197540671256303 0.3929043994745791 0  0.3386893218030361 0.4113813339512148 0  0.392617843466059 0.3724002807152662 0  0.4319782316259587 0.6217272743572498 0  0.4607162304325211 0.5957777599654085 0  0.4824331044403536 0.6237278827115702 0  0.5033279671779886 0.5978015730681097 0  0.5235262115386466 0.6237630626164734 0  0.5448995421192607 0.5976016067244306 0  0.5642762181532036 0.6231287515443145 0  0.5862246591441209 0.5969905804874945 0  0.6057302015326957 0.6242768639574851 0  0.6280824496992211 0.588614868117059 0  0.610058252179543 0.5550
[...]
<PointData  Scalars="u"> 
<DataArray  type="Float64"  Name="u"  format="ascii">-3.9158264429508872e-18  -4.8997837140640829e-18  -1.6861017406430145e-18  8.4557434284356772e-19  -7.7589132548792954e-20  2.0183432561627030e-19  6.0411510300690757e-20  2.5289719610729311e-19  -7.1699250803055961e-02  -7.1741409972559733e-02  -7.1588414732831271e-02  -7.1522801215555057e-02  1.3200224355739271e-01  -4.9517721223252685e-18  -2.4809355794611287e-17  1.4079769004862715e-18  -1.7298416540075954e-18  -7.0521323076133833e-19  -1.8378515128476816e-17  -1.8216427664178948e-17  -2.6916947345059401e-17  9.1198813712572602e-18  -3.7875520345199219e-17  -4.5651616717490446e-17  1.0203759556234640e-17  -7.7106082324808513e-18  -8.9968833788798819e-18  9.0824447491588705e-18  -2.7675499680340336e-17  1.6024755935424094e-17  -7.4935405085779328e-19  3.9793225100860573e-19  1.9968262195069768e-18  -1.3601219321206590e-17  -5.6628690388532845e-18  -2.0989520836341208e-17  1.4785330167253069e-18  -4.4474622983622602e-18  -4.4157113143420939e-17  -3.6997620594452459e-17  4.1597177892535011e-18  -2.3857379412301246e-17  8.1421970903294436e-18  5.0667266322866082e-17  -2.6501741424862634e-17  -2.4946371262568376e-18  -5.4279220553784949e-17  -2.0125571342063105e-17  2.7929434884815272e-18  -5.6897469233928408e-18  2.2234641671427568e-17  -3.1350552441776148e-17  -3.2133125305781964e-17  -2.5131211060235853e-17  -1.8269061293305781e-17  -1.7658390011524611e-17  -2.9074061058382477e-18  8.6876574411473530e-19  -2.6201027675920240e-18  -1.0804498586548443e-17  1.7379701307202169e-18  -1.8763043265296724e-17  -1.9605842799121760e-17  -3.6165219644053591e-19  -1.4137613368044152e-17  -2.6200508617709894e-17  -3.7658060990617688e-18  -1.0740966896253099e-17  -2.6419801176692110e-17  4.3536637656081405e-18  -1.4522880132830349e-17  -1.6446567760843878e-17  -2.5904787871278877e-17  -1.8570079272775974e-17  -3.0569125549461077e-17  -3.3012131025377630e-17  -1.5506625647596587e-17  -1.5732629573560179e-17  -4.5160992060821927e-17  -6.4582966696921136e-17  -2.1217029796422140e-17  3.2443457834262814e-17  -1.2099508925273627e-17  -3.2236274042371364e-17  -2.3497559429347342e-18  -2.9972762535191350e-18  1.4058207067112994e-17  -7.3007317372639773e-18  3.0490688383917547e-18  -1.9698985723676554e-19  -1.2010706926226933e-19  -1.9238520774151047e-18  -3.4392375731498745e-18  -6.1266473328579665e-19  5.5347146863650957e-19  -4.5788766244424387e-19  -2.0483963677115572e-18  -3.4627950150403322e-18  -2.3187251722586563e-18  -2.1106844467184943e-19  -5.4257252718376412e-18  -6.7529620417284102e-18  3.0946285165793707e-19  -3.0255241529728988e-19  -1.4320670530791113e-18  -8.8674491140790651e-19  -2.1519448320996889e-18  4.6757312290856560e-19  9.4655709640809719e-19  -4.3441913344095948e-19  -3.0962123207880461e-19  -1.2642355362843958e-19  -1.7133368367692781e-19  -2.0680650291820349e-19  -3.9757304318835683e-19  -1.0491307981180661e-18  -2.0428886940018880e-18  -1.0417454927003846e-18  7.0139173406431432e-19  -2.1472542399294026e-18  -6.2447427502359502e-18  -4.4650113246633328e-18  -1.0224157965619195e-18  -2.2136453614791932e-18  2.0805990740273761e-18  3.5440160782324812e-18  -4.3252657788050027e-19  -3.2704019670232462e-18  -5.7486844862755181e-18  -3.2625438201376924e-18  -5.1231107456073130e-19  5.5767023051112962e-19  2.5810380081023044e-18  5.7750984141085646e-19  -3.0678555553132568e-19  4.6868557047679987e-19  -5.6313999299754833e-19  -3.7524026202145254e-18  -5.4956584298373693e-18  -3.7329270372463761e-18  -2.7318006936215675e-18  -2.3891015295023689e-18  -2.6183315522888794e-19  5.4353598125277411e-19  6.8997037603380232e-19  -1.2894135066769474e-18  -4.0276284902909331e-19  -2.3660315458422664e-18  -2.5602763024858298e-18  -7.0218199224940716e-19  -1.3855616689661151e-18  -2.6183298169949113e-18  -1.1427145380942959e-18  -1.8667214003827895e-18  -2.7250875747967575e-18  -1.8522145402473148e-19  2.3816325542010857e-19  -2.1908581393937537e-19  1.4053404311583850e-19  -4.4117559529007328e-19  -1.8416114355785317e-18  -2.2772527764028110e-18  -2.3885386581716552e-18  -5.9957789618369974e-18  -4.4099584314707263e-18  -4.5171799239328345e-18  -1.3703337956954203e-18  -5.2800798023245418e-18  -9.3842386654276326e-18  -7.8155580995986419e-18  -2.9256458087885879e-18  3.7294377674665653e-18  -5.3260997993706632e-19  -4.5710932474675316e-18  -1.4931261621073030e-18  3.5851430462613789e-19  6.0078231396613081e-19  7.4187290020911763e-20  -3.7106013423768702e-19  -2.7133725572933620e-19  -2.1606347725301171e-19  -7.0540625013393629e-02  -6.5149159454619021e-02  -5.9683051789890182e-02  -5.4933599755579265e-02  -5.1359930048590789e-02  -4.9077519301971850e-02  -4.7943653130171168e-02  -4.7029294159350442e-02  -4.7661909248728325e-02  -4.8905751668122444e-02  -5.1041203217062521e-02  -5.4356996337103836e-02  -5.9165218632923379e-02  -6.4934595101060547e-02  -7.0403178560000168e-02  -7.2584612968105297e-02  -6.9725351439536801e-02  -6.5805853999820516e-02  -6.1940063721231411e-02  -5.8602927403416161e-02  -5.6412152148717039e-02  -5.4762377182427213e-02  -5.3683636522013335e-02  -5.3076166063159479e-02  -5.2797068307711630e-02  -5.2877727258624038e-02  -5.3471199571150152e-02  -5.4411278668009253e-02  -5.6262606389316391e-02  -5.8635969407005321e-02  -6.1872242446932554e-02  -6.5768861470259926e-02  -6.9755007733497756e-02  -7.2588559651551976e-02  -6.9998885300989244e-02  -6.5100264057782103e-02  -5.9764913200093396e-02  -5.5095519676475378e-02  -5.1683057624281686e-02  -4.9185710170682191e-02  -4.7679558001821817e-02  -4.7070175446389181e-02  -4.7314752536359757e-02  -4.8503554730435897e-02  -5.0883748950469279e-02  -5.4372194371848453e-02  -5.9260913848292997e-02  -6.4805569263746143e-02  -6.9959975532698934e-02  -7.2499062741847434e-02  -6.9457743962905272e-02  -6.5687243976880527e-02  -6.2004572958771688e-02  -5.9013619104228532e-02  -5.6725426711852309e-02  -5.4880409164904546e-02  -5.3899338710786407e-02  -5.3206747671578541e-02  -5.2876426488138201e-02  -5.3011260535360517e-02  -5.3502114478089141e-02  -5.4580427091222815e-02  -5.6206447966661348e-02  -5.8516473942285173e-02  -6.1821391348823813e-02  -6.5729575964733403e-02  -6.9648372631227556e-02  -7.2467182777282008e-02  -1.3100588664759487e-02  -7.2290359181670276e-03  -1.3006139353985447e-02  -7.6137762805111343e-03  -1.2554715410341040e-02  -1.0192625692219260e-02  -1.3317170201220838e-02  -9.6469521368108633e-03  -4.2641108739064808e-03  -5.1001947742555188e-03  -2.8486832832852241e-03  -3.2983099343695831e-03  -2.8784449443698917e-03  -3.8783343248673680e-03  -1.8425011794404318e-02  1.7841028328078570e-03  -1.2710833716068869e-02  -1.4220455994575835e-02  -1.9692678154799906e-03  -1.9167137715611942e-02  -2.3633474469322693e-02  -2.2650508091626512e-02  -2.5390729981862797e-02  -2.3685711936851282e-02  -3.2067243921895507e-02  -2.9488299662115629e-02  -3.2583754377492100e-02  -3.2671325634532011e-02  -1.8640293568698424e-02  6.1965768710612098e-03  1.3557110652161993e-02  3.1681657153394972e-02  4.0728265191915379e-02  5.8142100080446076e-02  6.9368451569075631e-02  8.2448585271943625e-02  4.4037104750441716e-02  9.5845604624731198e-02  1.0422936867755254e-01  7.9989392817055041e-02  9.8778679540920636e-02  7.1417051113990215e-02  8.1508509644018526e-02  1.0602322182853982e-01  8.6105748096256832e-02  1.0235572242074399e-01  7.8024827525967969e-02  8.3340069546240139e-02  6.0123465608394169e-02  5.8391478308394008e-02  7.5756601032005863e-02  9.9364105061516800e-02  8.1624137306604810e-02  1.0099011539558957e-01  8.0892678055274850e-02  9.7373632872974666e-02  7.5175032874530062e-02  8.7940623931525991e-02  6.1905306646122267e-02  7.6755573460807955e-02  1.0015671397184055e-01  7.9733371741917886e-02  9.9318667619833712e-02  5.7489071739912710e-02  5.3881873595519457e-02  4.0584592411958643e-02  4.3960992429108767e-02  5.3728532820812733e-02  3.9800343297163997e-02  6.0114025891772518e-02  8.4764480761021208e-02  1.9258141839713656e-02  3.3469190022012062e-02  4.7429959089727775e-02  4.1495083977247181e-02  5.5298297823116287e-02  8.7317044924528617e-02  5.1616571602539539e-02  8.0472714433925632e-02  1.0821433586869025e-01  9.3387390363221356e-02  6.9719361286572287e-02  7.5614239862364901e-02  1.0442246350705679e-01  7.9825787282266455e-02  5.7192051375185383e-02  5.6888258383045620e-02  7.0633591747638655e-02  3.6308924782122054e-02  3.0626218734473857e-02  1.3557919604790749e-02  1.2836615628074539e-02  1.1621052170271173e-01  3.0052755195262102e-02  3.2653288163330872e-02  2.2979283188058985e-02  3.9888300126835398e-02  1.0336759482314462e-02  8.2095736414828074e-03  2.0989136741381479e-02  4.8447534200114023e-02  2.2786195085104235e-02  1.3034248055419287e-02  3.0993071071849027e-02  5.9606004434899502e-02  3.9067558945167266e-02  3.3741634624678891e-02  5.4794628401525831e-02  3.2527376126407104e-02  1.5733868422688996e-02  1.0853971310547925e-02  2.1267818786911852e-02  1.9193588270644879e-02  3.1823231711170394e-02  6.4826053234902144e-03  5.3842031093801868e-02  1.2001569035287915e-01  1.1616519979219498e-02  1.2017158663989148e-01  7.2993033471853763e-02  4.4158265101401896e-02  6.7967405455844190e-02  4.1820550544729489e-02  1.8667251744968725e-02  1.4359889685125568e-02  3.2294923518078993e-02  5.2570497469476486e-02  3.3143737706317830e-02  2.5282259533882821e-02  1.0801233536248309e-01  -2.9524702403877596e-03  -6.4659527305139511e-03  4.9024937137445976e-02  2.4382145919409529e-02  2.9865303062006965e-02  4.3197305682878336e-02  3.0717740384165131e-02  1.2422972505674727e-02  3.1754412529910257e-02  1.6509535566146670e-02  9.7282948426982829e-03  -8.9333590272801103e-04  -1.2624350994695997e-02  -1.7871597011422598e-02  1.8858752597641366e-02  4.8449419827835833e-04  -2.9161445186058855e-03  -3.0632340677240054e-04  -1.5586965705659756e-02  -2.4032055313857346e-02  -5.1864763546121337e-03  2.2242938831492646e-02  4.6928254187728419e-02  -1.3327520365879759e-02  -8.4897024307480189e-03  -1.9036010614796382e-03  -1.9267997961373209e-02  -5.0593582612513401e-04  -1.1830137662503276e-03  -9.5103911188585567e-03  -2.3914521050580104e-02  -2.0409948717054712e-03  -3.1577933494830739e-03  -1.1505426707461023e-02  1.1117899268697540e-02  -6.9590862873338761e-03  1.4781170929148903e-02  -5.1310804134152739e-03  -1.5067600584310543e-02  -2.5176410634910641e-02  -1.3753966975993653e-02  9.0292079970215374e-03  3.1276857558565865e-02  -2.6919984421196301e-03  -9.2221170912055363e-03  6.8077753230843417e-03  -3.2664770178411517e-02  -3.2985479698551527e-02  -3.2245684931148183e-02  -3.2968811875029320e-02  -6.0177330798056950e-03  1.0954775742769329e-01  1.2339368790132860e-01  2.0639268788565767e-02  -1.0945404947686801e-02  -1.3010984134147996e-02  -3.5200595762987204e-03  -2.4994618716357404e-02  -4.0726971023211794e-03  3.5079307363476918e-03  2.5467845780624047e-02  4.6575835430201371e-02  -2.8188889349587119e-03  4.6215397855448086e-02  1.1776836636586467e-01  1.1672348900124903e-01  9.1475756423465018e-02  2.0471226598232733e-02  4.1867515484486882e-03  2.2503000561024424e-02  1.6899080602455190e-02  2.3246027638744338e-02  -7.2496159778791310e-03  -6.4406545419020116e-03  1.1385589899090361e-01  -5.6525122432860399e-03  1.9768279369582607e-02  1.5759161069376301e-02  5.4061017063702775e-02  4.5665342309195766e-03  4.8583643539691669e-02  9.0956789617630471e-02  -9.3052287507415475e-03  1.2631475857177651e-01  6.4926549039413042e-02  -1.8156019663155252e-02  4.5387013105021370e-02  2.1659419795574852e-02  1.7753452868143633e-02  1.1018093572577042e-01  -8.1847327292568963e-03  1.0303939113754894e-02  2.0850369678101239e-02  1.2854812053210510e-01  1.5030573678426697e-02  2.8537584580581178e-02  1.2357861999284510e-01  5.8794974586838966e-02  2.3623240836399783e-02  1.2821005194906798e-01  4.8372086905519959e-02  9.9653055083574089e-03  6.3471976650970510e-03  3.5393647698517106e-02  5.7605208505853447e-02  2.1448328971372409e-02  -1.0316677174164837e-02  4.6061959125604714e-02  -4.0277557431602093e-02  -4.0185546775418177e-02  -4.0152503407941686e-02  -4.0143735243783826e-02  1.1959791448880909e-02  -6.0168489682279882e-03  9.2516144647210845e-03  -5.9497947694528333e-04  1.8545319854291323e-02  6.3147338174367518e-02  -1.3287769272308857e-03  6.9884298853708322e-03  4.0112260079950078e-02  6.9385645820486203e-02  5.6951772264834513e-02  7.1916297307502208e-02  6.9898021398306729e-03  6.9615976375813321e-02  2.7072378974138701e-02  7.7181352944178952e-02  1.2669566512364436e-01  3.2588615133655040e-02  5.5431306605804621e-02  3.8905178342152756e-02  2.0605676168035891e-02  6.4299940192769814e-02  6.9203161212385234e-02  1.1891838832332956e-01  -1.3387723293553932e-02  -8.0290503905932994e-02  -8.0364391394505102e-02  -8.5277126289829017e-02  -9.3914866840715483e-02  -8.5612065727040845e-02  -9.4609997724326919e-02  -8.0416808591581720e-02  -8.4816277172154939e-02  -8.0239287920969057e-02  -8.4880145459521189e-02  -9.3993022227543285e-02  -9.3938004873510894e-02  -5.9325219416798067e-02  -5.2655111148551301e-02  -6.3147658096030013e-02  -5.4314120738401160e-02  -7.0366423858869293e-02  -8.5177684621572755e-02  -8.5078118178732384e-02  -7.0116660230045882e-02  -9.6514895439485840e-02  -1.0396908525356388e-01  -7.1853615058336512e-02  -7.1874177582704091e-02  -9.0428640338942254e-02  -1.0760871500504245e-01  -1.1677693789670693e-01  -1.1650381607251256e-01  -1.2701004254700698e-01  -1.2833663279610219e-01  -4.7166109788432588e-02  -4.5689659965643517e-02  -4.7500165656201708e-02  -4.5015955638662342e-02  -5.0852191560366099e-02  -4.8705629636209731e-02  -5.1482216039709872e-02  -1.3531293383920320e-01  -1.3667572247378260e-01  -1.1765347148948863e-01  -1.0913235986988558e-01  -2.7740144099160945e-02  -4.0831689192772525e-02  -3.8702205842429775e-02  -2.3393207357904306e-02  -2.3134617845308347e-02  -2.0315377918007461e-02  -3.7647100829403674e-02  -4.8062055223076446e-02  -1.1587142336092451e-01  -1.0762972011049651e-01  -5.4305833944735434e-02  -4.8605554197189732e-02  -5.5271077601893558e-02  -1.0047700076547809e-01  -1.0459846888337672e-01  -1.1424506135812626e-01  -1.2009625450543081e-01  -1.2788030965516409e-01  -1.3159750310829491e-01  -1.2357070613224259e-01  -1.3718983668069951e-01  -1.3497125675455904e-01  -1.3677807594489819e-01  -1.0060105165253949e-01  -1.0551498913267951e-01  -1.1458902360990285e-01  -1.2052651425013815e-01  -1.1449255993547085e-01  -1.2817751299881486e-01  -1.3192085172796647e-01  -1.3736788908437295e-01  -1.3509773017974200e-01  -1.3728067836238128e-01  -7.9069419016369172e-02  -9.6704662449876605e-02  -1.0414355038158282e-01  -1.0791883397051684e-01  -1.1710136360021242e-01  -1.1669684521353084e-01  -1.2710484361365412e-01  -1.2846117120998332e-01  -1.3526502345831723e-01  -1.3731584824846552e-01  -6.8602733822531375e-02  -6.9018976405561164e-02  -7.5622274481450910e-02  -7.5802865879309164e-02  -1.2566964074714876e-01  -1.3970641250690563e-01  -1.3815549279955833e-01  -1.3865251606409199e-01  -1.3976659274268011e-01  -1.3783712752001212e-01  -5.3014411218452295e-02  -1.3961779325496768e-01  -1.3724969074664103e-01  -1.3865282726951753e-01  -1.3981320353126803e-01  -1.3775113751968127e-01  -1.3172288064991933e-01  -7.8504700956102375e-02  -1.3570713675901486e-01  -1.3629159559835299e-01  -4.8068020769637197e-02  -4.4090335193561508e-02  -4.7157245679530356e-02  -1.3542027969378842e-01  -1.3597454252082222e-01  -1.0673848344532176e-01  -9.8066936238302344e-02  -1.3738584332164996e-01  -1.3633619139791259e-01  -1.3736278013666056e-01  -1.3649272452961878e-01  -1.3380324431152760e-01  -1.3478197925112215e-01  -1.2999474223473204e-01  -1.3017426086418329e-01  -1.2561750263536237e-01  -1.2537845646955018e-01  -1.3439993848003767e-01  -1.3441527727896915e-01  -1.3021881189533582e-01  -1.2992689690012260e-01  -1.2551673868223762e-01  -1.2550633055317598e-01  -1.2100470050677949e-01  -1.2171753350038873e-01  -1.1703951435237453e-01  -1.1899234657533059e-01  -1.1466943565593694e-01  -1.1790683896162668e-01  -1.1393552316876668e-01  -1.1845417038108050e-01  -1.2080692103175067e-01  -1.2154011114525293e-01  -1.1673136164335769e-01  -1.1886582351886114e-01  -1.1435160702332946e-01  -1.1785354242360876e-01  -1.1357002074056743e-01  -1.1843446943016019e-01  -1.3448967825769484e-01  -1.3213075808848268e-01  -1.1642229229260692e-01  -1.1665105622877280e-01  -1.3438185138407058e-01  -1.3145197701464784e-01  -1.1508626960367241e-01  -1.2059161344257610e-01  -1.1739871379747197e-01  -1.2378806118346508e-01  -1.2078795742150258e-01  -1.1473466942233644e-01  -1.2056372412065687e-01  -1.1703161016360948e-01  -1.2389695430067457e-01  -1.2055646863887051e-01  -1.3207479972770847e-01  -1.3186478127029502e-01  -1.2498761842548427e-01  -1.1796963772327047e-01  -1.2187544660754128e-01  -1.1759719381190487e-01  -1.2128109097975261e-01  -1.1260505277300531e-01  -1.2169598033845244e-01  -1.1302064931685928e-01  -1.2289530784455184e-01  -1.1439676334756137e-01  -1.0171377567325930e-01  -1.1423197384953686e-01  -1.3005408419935000e-01  -1.2415156926978702e-01  -1.2202906115244387e-01  -1.0120640565115284e-01  -1.3092186162951122e-01  -1.2275367128675427e-01  -1.1982049867415710e-01  -1.2105870385391686e-01  -1.2016113151435738e-01  -8.8366830446830760e-02  -9.6048882672180619e-02  -7.9120270924616501e-02  -9.0805532546860329e-02  -1.1629386220374943e-01  -1.2338664907925850e-01  -9.8259509060514200e-02  -1.2897683699941459e-01  -4.0383354227823576e-02  -1.0023490138019907e-01  -1.3059190778120253e-01  -1.1009095490697655e-01  -7.2161463691755731e-02  -8.1702897410229680e-02  -1.1043735683912426e-01  -1.0963790353449945e-01  -1.0990227068335011e-01  -1.0036407418384015e-01  -1.0992440334645694e-01  -1.0262431207114203e-01  -1.0917122237947571e-01  -1.0103866721148562e-01  -1.0159810136447325e-01  -9.2511850650861718e-02  -1.1208291156466221e-01  -9.2449153029551687e-02  -8.4889048664484879e-02  -8.4781318704198680e-02  -7.8937335514405155e-02  -8.0337890681268925e-02  -7.5779734724687978e-02  -7.8352041817422002e-02  -1.1781083447006327e-01  -1.2319191691276846e-01  -1.1536864670688780e-01  -1.2285297359200542e-01  -8.7729062834013924e-02  -8.2405746595415177e-02  -1.0017860157552401e-01  -7.6849759479693955e-02  -1.1832682050195675e-01  -1.2004787096779203e-01  -6.6434776745786434e-02  -3.6796094317513760e-02  -4.3346318815244929e-02  -4.0373457520977825e-02  -1.0187974033390049e-01  -9.5736507987161754e-02  -1.2362460291650977e-01  -1.1445475305602108e-01  -1.1352119008258024e-01  -1.0090555327557954e-01  -1.0547411071368486e-01  -1.0242497134736205e-01  -9.9533922827610644e-02  -1.0138763179779792e-01  -1.0559462770879154e-01  -9.7448453404321400e-02  -8.6733954035640770e-02  -8.7344736305261225e-02  -8.8786565617049826e-02  -8.3580131723654499e-02  -7.8343315672144198e-02  -7.9178230099142780e-02  -6.9410692920793854e-02  -7.5421211160486862e-02  -7.8072557993847463e-02  -7.8666047810708281e-02  -7.3355645489316432e-02  -8.1489513594847407e-02  -7.3262632002336930e-02  -8.5270853537914554e-02  -8.5715179092332977e-02  -9.2144848078309666e-02  -9.0628305184221269e-02  -1.0079693056059573e-01  -9.5834101220797357e-02  -1.1153229003176911e-01  -9.9556949839519557e-02  -1.1656204821025738e-01  -1.0686965910093506e-01  -1.1227410610321910e-01  -1.0524721774524723e-01  -1.3025743035598211e-01  -1.1871857582210031e-01  -7.5975001672060907e-02  -9.3033417637373939e-02  -1.0623643787525110e-01  -1.0468524440186500e-01  -1.1635535152547580e-01  -7.9711702653950486e-02  -1.2682563101481306e-01  -6.6351763754432927e-02  -9.5523946661780712e-02  -8.4710092611459925e-02  -1.0577686204052332e-01  -9.5461326483417278e-02  -1.1639274326427623e-01  -7.6953797290333942e-02  -1.0416535776450005e-01  -1.0729667809438363e-01  -9.4931167762376922e-02  -8.8747975069702223e-02  -1.0736186197040133e-01  -8.1818095013370187e-02  -7.8188125817617637e-02  -8.6933157396938410e-02  -9.2770953403334397e-02 