<?xml version="1.0"?>
<VTKFile type="UnstructuredGrid"  version="0.1"  >
<UnstructuredGrid>
<Piece  NumberOfPoints="1297" NumberOfCells="2496">
<Points>
<DataArray  type="Float64"  NumberOfComponents="3"  format="ascii">0 0 0  0 1 0  1 1 0  1 0 0  1.1 -0.1 0  -0.1 -0.1 0  1.1 1.1 0  -0.1 1.1 0  0.2475934744455854 0.6924794294738386 0  0.2460986846125669 0.3088091862231567 0  0.7531014057313905 0.3083883464220547 0  0.7539217634437573 0.6910783801666891 0  0.5000199323447213 0.5002587595324532 0  0 0.9499999999997918 0  0 0.8999999999995836 0  0 0.8499999999996529 0  0 0.7999999999999998 0  0 0.7500000000003466 0  0 0.7000000000006934 0  0 0.6500000000010401 0  0 0.6000000000013869 0  0 0.5500000000017335 0  0 0.5000000000020587 0  0 0.4500000000018723 0  0 0.4000000000016644 0  0 0.3500000000014564 0  0 0.3000000000012483 0  0 0.2500000000010403 0  0 0.2000000000008322 0  0 0.1500000000006241 0  0 0.100000000000416 0  0 0.05000000000020799 0  0.04999999999989965 0 0  0.09999999999981467 0 0  0.1499999999997036 0 0  0.1999999999995579 0 0  0.2499999999994121 0 0  0.2999999999992664 0 0  0.3499999999991206 0 0  0.3999999999989749 0 0  0.4499999999988292 0 0  0.4999999999986943 0 0  0.5499999999988151 0 0  0.5999999999989468 0 0  0.6499999999990784 0 0  0.69999999999921 0 0  0.7499999999993417 0 0  0.7999999999994734 0 0  0.8499999999996051 0 0  0.8999999999997368 0 0  0.9499999999998684 0 0  1 0.04999999999989965 0  1 0.09999999999981467 0  1 0.1499999999997036 0  1 0.1999999999995579 0  1 0.2499999999994121 0  1 0.2999999999992664 0  1 0.3499999999991206 0  1 0.3999999999989749 0  1 0.4499999999988292 0  1 0.4999999999986943 0  1 0.5499999999988151 0  1 0.5999999999989468 0  1 0.6499999999990784 0  1 0.69999999999921 0  1 0.7499999999993417 0  1 0.7999999999994734 0  1 0.8499999999996051 0  1 0.8999999999997368 0  1 0.9499999999998684 0  0.9499999999997918 1 0  0.8999999999995836 1 0  0.8499999999996529 1 0  0.7999999999999998 1 0  0.7500000000003466 1 0  0.7000000000006934 1 0  0.6500000000010401 1 0  0.6000000000013869 1 0  0.5500000000017335 1 0  0.5000000000020587 1 0  0.4500000000018723 1 0  0.4000000000016644 1 0  0.3500000000014564 1 0  0.3000000000012483 1 0  0.2500000000010403 1 0  0.2000000000008322 1 0  0.1500000000006241 1 0  0.100000000000416 1 0  0.05000000000020799 1 0  -0.1 1.05000000000004 0  -0.1 1.000000000000079 0  -0.1 0.9500000000001624 0  -0.1 0.9000000000003032 0  -0.1 0.850000000000444 0  -0.1 0.8000000000005848 0  -0.1 0.7500000000007256 0  -0.1 0.7000000000008665 0  -0.1 0.6500000000010508 0  -0.1 0.6000000000012352 0  -0.1 0.5500000000014196 0  -0.1 0.500000000001539 0  -0.1 0.4500000000014195 0  -0.1 0.4000000000013 0  -0.1 0.3500000000011588 0  -0.1 0.3000000000010178 0  -0.1 0.2500000000008986 0  -0.1 0.2000000000007579 0  -0.1 0.1500000000006174 0  -0.1 0.1000000000005272 0  -0.1 0.05000000000040083 0  -0.1 2.671196597248127e-13 0  -0.1 -0.0499999999998666 0  -0.0500000000000906 -0.1 0  -1.730560139634463e-13 -0.1 0  0.04999999999975802 -0.1 0  0.09999999999961506 -0.1 0  0.1499999999994613 -0.1 0  0.199999999999302 -0.1 0  0.2499999999991446 -0.1 0  0.2999999999990088 -0.1 0  0.3499999999988296 -0.1 0  0.3999999999986936 -0.1 0  0.4499999999985143 -0.1 0  0.4999999999984002 -0.1 0  0.5499999999985247 -0.1 0  0.5999999999986493 -0.1 0  0.6499999999987955 -0.1 0  0.6999999999989417 -0.1 0  0.7499999999990659 -0.1 0  0.7999999999992116 -0.1 0  0.8499999999993573 -0.1 0  0.8999999999994526 -0.1 0  0.949999999999584 -0.1 0  0.9999999999997226 -0.1 0  1.049999999999861 -0.1 0  1.1 -0.0500000000000906 0  1.1 -1.730560139634463e-13 0  1.1 0.04999999999975802 0  1.1 0.09999999999961506 0  1.1 0.1499999999994613 0  1.1 0.199999999999302 0  1.1 0.2499999999991446 0  1.1 0.2999999999990088 0  1.1 0.3499999999988296 0  1.1 0.3999999999986936 0  1.1 0.4499999999985143 0  1.1 0.4999999999984002 0  1.1 0.5499999999985247 0  1.1 0.5999999999986493 0  1.1 0.6499999999987955 0  1.1 0.6999999999989417 0  1.1 0.7499999999990659 0  1.1 0.7999999999992116 0  1.1 0.8499999999993573 0  1.1 0.8999999999994526 0  1.1 0.949999999999584 0  1.1 0.9999999999997226 0  1.1 1.049999999999861 0  1.05000000000004 1.1 0  1.000000000000079 1.1 0  0.9500000000001624 1.1 0  0.9000000000003032 1.1 0  0.850000000000444 1.1 0  0.8000000000005848 1.1 0  0.7500000000007256 1.1 0  0.7000000000008665 1.1 0  0.6500000000010508 1.1 0  0.6000000000012352 1.1 0  0.5500000000014196 1.1 0  0.500000000001539 1.1 0  0.4500000000014195 1.1 0  0.4000000000013 1.1 0  0.3500000000011588 1.1 0  0.3000000000010178 1.1 0  0.2500000000008986 1.1 0  0.2000000000007579 1.1 0  0.1500000000006174 1.1 0  0.1000000000005272 1.1 0  0.05000000000040083 1.1 0  2.671196597248127e-13 1.1 0  -0.0499999999998666 1.1 0  0.2377993370620145 0.6707533262864686 0  0.2311417567544222 0.6462175262787453 0  0.2253309416646338 0.6212163850856445 0  0.2205763155825518 0.5964084869629254 0  0.2167550788523236 0.5721007132188373 0  0.2136512868156749 0.548215015267884 0  0.2114940829451174 0.5244853212496041 0  0.2110467373171346 0.5008028427431901 0  0.211482967131767 0.4771419788149909 0  0.21328437137324 0.4532671864573926 0  0.2161038436261378 0.4292903244895469 0  0.219829371255593 0.4051124007476036 0  0.2242666429613904 0.3804868326721937 0  0.2298272473781288 0.3554046974873603 0  0.2362751842919845 0.3307437302883414 0  0.268926332178794 0.3013599012691328 0  0.2943413040984386 0.2964441300458158 0  0.320480105807305 0.2921447969305168 0  0.3466671433499359 0.2882488548770152 0  0.3726632835922769 0.2849138225724611 0  0.398363087340867 0.2819676970670787 0  0.4238121798899235 0.2794918040524315 0  0.4491529083059297 0.2774534634261364 0  0.4744796580737368 0.2763694838823579 0  0.4997103422835315 0.2760002434329522 0  0.5249363484642569 0.2764604689121748 0  0.5502094219007814 0.2776581075777959 0  0.5756188980266888 0.2794211564387691 0  0.6011187384394353 0.2819826657856292 0  0.6269532976409625 0.2848216862733957 0  0.6530065135302083 0.2881095879589572 0  0.6791099896383974 0.291908069097692 0  0.7050975396139998 0.2961332698126378 0  0.7303534784765241 0.3009072421189335 0  0.7625550978555017 0.3302125334297749 0  0.7694309731776917 0.3545268418865384 0  0.7751916726901474 0.3795128086664875 0  0.7798332143928702 0.4042211107438174 0  0.7836296950198762 0.4284637263390564 0  0.7864732916450985 0.4524059008546394 0  0.7881166425739116 0.4760914391432787 0  0.7884872445826485 0.499529891924107 0  0.7876675950286193 0.5229284800859892 0  0.7858952420879887 0.5464082911435253 0  0.7833394241346981 0.5702828005893633 0  0.7797420337115971 0.5944496616837353 0  0.7755898261993271 0.6194228320869877 0  0.7700606989852331 0.6445598480836634 0  0.7634655741475306 0.6691295748673028 0  0.7311393753362881 0.6986770130880988 0  0.705834101244068 0.7034381289698105 0  0.6799893342412787 0.7079109614296094 0  0.6538836343032567 0.7120028348014428 0  0.6278362483367491 0.7156105265984942 0  0.601921889345746 0.7186536940577862 0  0.5764066993625324 0.7213032803671482 0  0.5510419747160059 0.7231192129882057 0  0.5258308663895297 0.7242701527351632 0  0.5007083396299575 0.7246512834076484 0  0.4755608018320953 0.7243371104322645 0  0.4503368474428306 0.7231564176474167 0  0.425074794944512 0.7212092760332192 0  0.3995573364953343 0.7188437548962482 0  0.3737390282603794 0.7159910894838082 0  0.3477805077115232 0.7126304329839084 0  0.321643426269582 0.7088441346133642 0  0.2955869553686975 0.7045995028615865 0  0.2703069196770984 0.6997897545118453 0  0.3578109558643806 0.3109968892618961 0  0.2415543321187135 0.4403481415739691 0  0.3588684055910176 0.6898987517516153 0  0.2420575947329082 0.5610435144937579 0  0.7570815922290351 0.583350141733004 0  0.6162350906157965 0.6935878066325994 0  0.6406108708282457 0.3102554445280951 0  0.7599557984057438 0.4387448163731341 0  0.7615625043535922 0.5108380132003858 0  0.5629827499391817 0.3017568460614763 0  0.4366962095235654 0.3038473485875999 0  0.4362947022292979 0.6972270213992358 0  0.5388889603044295 0.699127735392385 0  0.2385942272098551 0.4886628539385685 0  0.2459442800738393 0.3912224329388058 0  0.4871191777293606 0.3040276588239932 0  0.2535390525356919 0.608508087272275 0  0.746631876212528 0.3881732051334457 0  0.487899588189359 0.6998073035246068 0  0.6688895520536157 0.6862462996633397 0  0.3042423751821186 0.320361007133831 0  0.6956531537917142 0.3215078233133564 0  0.3064022689973053 0.6831170052031269 0  0.746343325305254 0.635153231869237 0  0.2572767078988019 0.3417292227538604 0  0.2613265900177111 0.6580808299345039 0  0.7212183350436172 0.6780311029231645 0  0.7427340371531798 0.3405855519917368 0  0.332606086224173 0.6866719372836588 0  0.3440074575168357 0.6647541974003432 0  0.3702227763711871 0.6671580500314956 0  0.354860671741091 0.6421063708581087 0  0.3823079345910462 0.6439987193956652 0  0.365795962747511 0.6164787241219869 0  0.3986975891007642 0.6181599104033771 0  0.379065771293366 0.5855733452549963 0  0.3331188871306251 0.6138368552449996 0  0.4191535998973082 0.5863969081359237 0  0.395250155155367 0.5494598330241709 0  0.3480292303000757 0.5546857281547494 0  0.3677667449142192 0.5149297986178959 0  0.3227475065737193 0.5170610818391543 0  0.3383257610871357 0.4819647477678868 0  0.385554030378589 0.4763764715317451 0  0.3606980758254038 0.4431869565216007 0  0.4034651793411736 0.4373245266557168 0  0.3800874797420836 0.4058157405132844 0  0.4191044621119612 0.3933094731211905 0  0.339470857881531 0.407906238405732 0  0.3913541382610603 0.3718696807491597 0  0.4304637566338658 0.6208541292886204 0  0.4598798068932795 0.5947963221504979 0  0.4815248014173644 0.621833038129924 0  0.5027958435868677 0.5965239783771098 0  0.5232172883384915 0.6219679825182296 0  0.5446691997445092 0.596779981396121 0  0.5644776661751304 0.6222944855155309 0  0.5861153019703725 0.5973417971161001 0  0.6063503307083158 0.6252751648910074 0  0.6274801424224371 0.5908152273793138 0  0.6089734109714319 
[...]
<PointData  Scalars="v"> 
<DataArray  type="Float64"  Name="v"  format="ascii">4.2057322535702116e-21  6.4714780073116600e-21  -8.5791274701050527e-22  3.3840198549354542e-21  -1.0966868570678294e-22  -1.1038892125175367e-22  3.4603778872930456e-24  -3.8882616029346022e-22  -2.4913993777154114e-06  7.0379885549190773e-06  1.3007764092936791e-05  3.7926372577432619e-06  1.9516053732731383e-05  1.1921654453766687e-20  2.3847026854428077e-20  -1.2306893817346044e-20  -4.3095559027668234e-20  6.7818471879317622e-20  1.2766537111876824e-19  -5.1541328401586168e-20  2.5158330778464160e-19  2.5126774756490581e-19  -3.2388036692165133e-19  -9.1965561663611931e-21  1.6166151467372394e-19  4.9954415550034294e-20  -3.0029584459052130e-20  -2.5832236701000736e-20  1.3487102422691967e-20  -4.6083170887743274e-22  -2.6371504336699652e-20  1.9377419256851496e-20  -7.5175292062865107e-21  1.3748924141968466e-20  4.9953441087275788e-20  -5.7840082570435835e-21  4.1716377828142720e-21  6.4554830391938919e-20  8.0841119040647803e-20  4.3237131318615372e-20  -9.6308431413368900e-20  9.6724609662319360e-20  -8.0399958716967008e-20  -1.0585099337962803e-19  7.6558981412831246e-20  6.0599166120003328e-21  -2.9076162243395888e-21  1.0560199419666213e-19  -6.8042260716332257e-21  2.0755189162952981e-20  -3.3477465420297438e-21  1.5343273744998873e-20  1.5465121397014201e-20  -2.2396188559367545e-20  1.3181651380763328e-20  7.2445386683523868e-20  -3.9795835190127461e-20  8.6809705752838891e-21  2.7959811697045182e-19  -2.1457642236898717e-20  6.1252567537965838e-21  3.1154950627913684e-20  8.5169813178452641e-20  -5.9081617752614724e-22  -3.5881003263593544e-20  3.6168751663207500e-20  -4.4565057684375116e-21  3.3868635967308750e-22  4.4775170194040244e-20  3.1484875085513954e-21  -1.3548464077043787e-21  1.0615297360197194e-20  6.0779258809649194e-21  8.1759656612887221e-20  6.1072364005909572e-20  -2.2986721473748534e-20  2.4725324164129502e-20  1.2448012398037609e-19  5.4077193892963592e-20  3.7309765767246174e-20  3.9607692479012284e-20  -5.5334115957647707e-20  -1.6946204279423747e-20  -2.6974636715589238e-20  -2.9663681891827800e-20  -1.4306050779837157e-21  6.2790084432664241e-20  -2.3566268407768982e-20  -3.2843548784456807e-20  4.5551476011059585e-23  5.7494964909597941e-22  2.5034840666772935e-21  2.2798770645392601e-21  -3.5229661476462004e-21  -3.3181903902451936e-21  1.1504825757686713e-20  1.0949640725580175e-20  1.9774671571688743e-21  3.5256922089854945e-20  2.1581842110236715e-20  -2.7069956799180650e-20  -6.5972531223610494e-21  2.1401401905807297e-20  9.5918245432919570e-21  -6.9235763423797939e-21  -5.3716774580955347e-21  -3.2505508673006961e-22  -4.4230113354208730e-22  -2.2869330800547377e-21  1.2754464886224158e-21  1.4426090277907798e-21  -3.1824834019566543e-22  2.6680697896792000e-22  2.2327560249662074e-22  -8.2064116476038746e-22  2.7456924914238925e-21  5.4367849529240273e-21  9.3901265780462396e-23  1.5550167947033258e-21  7.0810121711545769e-21  1.3134359674909472e-20  1.4334435971788326e-21  -5.2121937485591502e-21  5.4158792407486200e-21  -7.5165440071076590e-21  -1.5904552592117948e-20  4.7760328336592204e-21  3.3345413769238960e-21  1.2849298219196487e-21  1.4582546841855812e-20  4.3104727878277342e-21  -2.3720793595815218e-21  6.1563446634141420e-22  -2.4943319415232717e-24  2.0848407556896901e-22  -1.0282940692703089e-22  5.7243542466156331e-22  2.4264355315061557e-21  1.1227532308990319e-21  -2.1608929732086385e-21  2.9778469755328198e-21  7.9997156091267430e-21  -6.6376708675690665e-21  6.4212004810339665e-21  2.8402755646626924e-20  7.4598768140407984e-21  -4.2128933001555622e-21  7.2695804684711737e-21  9.7062785579540460e-21  9.6485122962753771e-23  -3.9065101548097249e-21  5.0214935440573970e-21  -2.0131738191087417e-22  9.7901487921963431e-22  4.5837056595454309e-21  1.4854592845946631e-21  -5.4219478598726179e-22  7.9092369768495881e-23  4.4700446445914060e-23  -2.8449602021803932e-22  2.5082993612778068e-22  3.2984021076213391e-22  4.1182087967099787e-21  3.2593793006576151e-21  8.0366801034578588e-21  -2.1113668107340492e-21  5.6788742172045959e-21  1.1075187972215127e-20  6.1104101933775560e-21  7.0332619788061574e-21  2.9992416998399350e-21  -5.1141027822771635e-21  -4.2157958128164792e-21  -4.0585606326331611e-21  -6.5987371976100815e-21  4.6535305043321391e-21  9.5828433230514289e-21  -2.6986290460157147e-21  -4.3642924090261089e-21  2.5536954711418724e-22  5.4996066178986869e-22  5.2713162928723813e-06  1.6061010784322760e-05  2.8083287653919556e-05  4.0428885238809299e-05  5.1526888057087361e-05  5.7018978625331761e-05  6.0371064068103926e-05  6.5645828790167910e-05  6.1282000582553740e-05  5.8599137524274249e-05  5.3213198069783618e-05  4.5911101349492900e-05  3.4044323504528980e-05  2.3151866836677788e-05  1.4660594656052097e-05  7.7039061537921255e-06  9.7662332038723127e-06  1.1544571134075202e-05  1.3976840337010179e-05  1.7719848128297957e-05  1.9199369170806958e-05  2.0356273720421515e-05  2.0462211623800571e-05  2.1314872599921620e-05  2.1836023342887667e-05  2.2157526737351746e-05  2.2373002538534169e-05  2.2107604300137728e-05  2.1921795922995313e-05  2.0374681687136723e-05  1.7776938762954027e-05  1.5889736511257201e-05  1.4938420556840761e-05  1.2876786886842334e-05  2.1968459365242009e-05  3.0440139917205609e-05  4.1672280092572979e-05  5.3274224866932785e-05  6.0321381073517191e-05  6.6504410961755226e-05  7.0484496373473166e-05  7.2412860727780130e-05  6.9507514228238696e-05  6.5291259084345837e-05  5.8429035583420737e-05  4.9069291934465203e-05  3.6236215323718271e-05  2.3796026917404633e-05  1.2918333077713653e-05  1.8235671886709358e-06  2.8642240139135363e-06  2.4592822057648835e-06  3.2254907007735058e-06  4.7349652090271270e-06  5.6319716430303799e-06  5.5661647773827765e-06  5.7332772957289533e-06  5.3930102742600320e-06  4.9500478548273803e-06  4.3876445185626747e-06  3.9926816707762622e-06  3.8462400156403735e-06  2.9839642728690644e-06  1.4043286408736031e-06  -3.5633811278483517e-07  -1.6511646787514590e-06  -2.3093841532221855e-06  -2.3767211317021600e-06  1.4941633236335035e-05  4.6418121230488059e-05  1.2491382986722130e-06  4.2772568321316701e-05  4.2851364403120668e-05  5.5209754448061386e-06  1.9561496899309437e-05  5.4442984735490421e-05  5.9786860885136906e-05  2.1774790196912497e-05  1.9818973921007405e-05  4.2473345972485220e-06  6.0329475667847085e-06  5.2506140968787108e-05  3.2440083949334742e-05  2.1535387578049000e-05  2.6010571635050696e-05  3.8568222024432965e-05  5.4237795060463052e-06  5.0432721226513742e-06  1.3564225587915019e-05  1.9697305570810515e-05  -2.9788810977364391e-06  2.3378699712654458e-05  6.5509092031107985e-06  1.2198579244364767e-06  -4.3625553124976895e-06  1.3422748959285474e-05  3.1605070414659185e-07  3.3836144846730855e-06  4.3073202071563051e-06  7.5946542704702344e-06  7.7185948143762437e-06  1.1850494842585929e-05  1.0724550268319403e-05  1.5257962204777403e-05  1.2826982699339421e-05  1.3133279029005159e-05  1.8295136111043142e-05  2.3642524520326544e-05  2.5148424908216519e-05  3.3530749881498530e-05  3.1676733777498513e-05  2.4079492689550715e-05  2.6462691194358600e-05  2.2060379414293009e-05  2.2362403827484250e-05  2.0058889458709448e-05  2.5693473247879442e-05  1.9839870766669166e-05  9.0563540565122030e-06  1.1164627206480609e-05  9.4287827480741924e-06  1.0962092311649303e-05  1.0506795663828549e-05  1.2250995164122962e-05  1.1001047213217965e-05  1.4908399575691804e-05  1.2985290592245539e-05  2.0074176780355180e-05  2.2592379729482494e-05  3.0322643134671521e-05  3.0724541178644689e-05  2.6128635275091678e-05  3.7913619201968821e-05  9.7209941305222300e-06  7.4560310315730177e-06  3.3879756892253529e-05  4.3082700757888252e-05  2.0346352460650836e-05  2.0155175308353584e-05  4.8165437388480397e-06  1.9909252501376079e-05  7.9571992280104083e-06  8.5368825513435882e-06  2.0875274395197464e-05  2.0944312174829499e-05  2.1546631842454178e-05  2.1394203796263060e-05  2.1367503619188731e-05  2.2867883440509346e-05  2.3594923783128824e-05  2.5315479705899468e-05  2.5986061763074867e-05  3.1537591957398057e-05  2.7973517487463286e-05  3.3714951033910541e-05  3.7053980777249826e-05  2.6801926499084274e-05  3.4574751269440122e-05  2.9103026204472449e-05  2.3363362493434436e-05  2.3443474567595035e-05  3.3778924359723436e-05  1.9901546791807170e-05  4.5451127465242580e-05  4.8480129752770042e-05  2.6948636768027968e-05  1.7686818473327873e-05  1.2265089009587919e-05  2.2648382872171383e-05  2.2417207349732178e-05  5.2452155762130155e-05  2.0975843988454206e-05  3.4295464795349950e-05  3.1473155991666539e-05  2.2398556860050213e-05  3.9760884598206750e-05  4.4508885780280147e-05  2.8304369692880769e-05  2.2020619357979182e-05  1.8259356179838328e-05  4.2288129912625564e-05  3.3382173913558650e-05  4.8988195811958098e-05  2.5423659511966537e-05  2.1669711115622318e-05  3.7174270911530161e-05  2.0107417917699933e-05  3.9476500563248260e-05  5.1523639268768273e-05  4.4020381542997644e-05  5.2543580401946652e-05  5.7352060393278807e-05  5.6246359956422257e-05  4.9405709090417140e-05  2.0207015323812651e-05  1.9258819719516319e-05  4.8525168429847245e-05  2.8976068607080803e-05  2.5000056647319395e-05  3.0529486585094976e-05  1.5433113888774709e-05  1.0645562981175425e-05  2.4149688629985004e-05  2.3977752635293777e-05  2.2992741580659117e-05  2.2116962495516403e-05  2.1572509709498763e-05  1.2434105973681934e-05  2.9420453540133739e-05  1.6210881474394987e-05  1.9283032523005730e-05  1.3211493930288252e-05  4.9513239985912719e-05  4.9802145290542958e-05  4.8989069027356638e-06  5.8595638368499089e-06  7.8639537205926370e-06  2.5364281952548219e-05  3.3994561229071876e-06  5.3375615990960430e-06  7.4918451019503845e-06  3.2269704514157569e-05  2.3867309167984665e-06  2.1565525719928048e-05  1.8385734466122460e-05  1.8730538698554391e-05  2.0712483636944187e-05  1.7150146751795794e-05  1.7258355578074553e-05  1.8115552376187541e-05  5.8177897388537341e-06  4.7416510534224910e-05  4.8374407535762652e-05  5.8127796590612181e-06  7.6659009112034880e-06  5.9826808625210893e-06  4.9725714599360599e-06  -3.0286122299205824e-06  1.5156378860292256e-05  4.0775016134596245e-05  2.2036651994873747e-05  1.0085001668393931e-05  2.0680893477345090e-05  1.5620680377586545e-05  -2.6371381169409123e-07  -1.1150341255268452e-05  1.8923204704461810e-06  4.2158622165878831e-06  5.1003828602028922e-05  2.0386530167043392e-05  1.4495581687061007e-05  5.5516968459488611e-05  3.5552557772203805e-05  3.9793043891037279e-05  2.6512500328644803e-05  3.1849910601067192e-05  2.1881304876180633e-05  7.6357412503853474e-06  6.9735365110868812e-06  4.0650625369124939e-05  2.1772393065254906e-05  4.4346397872933654e-05  2.0033164595408645e-05  1.6208535153179124e-05  3.3421118218852856e-05  7.8162682871624879e-06  2.0831391936971228e-05  6.2482083522807579e-06  1.8305494195861373e-05  5.8293824594888613e-06  5.2339027928244219e-05  6.0537705216913484e-05  1.6985889082203178e-05  2.2447260580776362e-05  7.1769056744923624e-06  2.2304480764264169e-05  2.4170853537742625e-05  3.5691644130909798e-05  7.1477206286495761e-06  3.6386676048670225e-05  5.8918347188725117e-05  1.9545427021391758e-05  1.8781007172656219e-05  2.5371857828265054e-05  2.3115410141317005e-05  2.2450506775574155e-05  7.3950035791339751e-06  2.0140069263186078e-05  4.8051121831683228e-05  1.7357520276982449e-05  6.4625132368330269e-06  1.9416434875510346e-05  4.2641919202815345e-05  1.8937624336503397e-05  1.4921398963944062e-05  4.3807877635466826e-05  2.1504814012511005e-05  1.8804524741131093e-05  7.4954685794185657e-06  3.7041111430098994e-05  7.3204127069663464e-06  1.0793766738395485e-05  9.4672546136626504e-06  2.0176936790408695e-05  5.7372600788001439e-05  9.1572581829489095e-06  -1.1522086472378814e-05  -5.1769082562052960e-06  -2.0842154498384380e-05  -1.4914523955106076e-05  2.1583668898961482e-05  2.1341145027193174e-05  5.3910774496454882e-05  3.2813212939276332e-05  2.2498627124527730e-05  1.1740401048894456e-05  1.1781678520432727e-05  3.4657900933803198e-05  2.1294546973043420e-05  9.0122723791954647e-06  2.1814551107281973e-05  8.7081128333237648e-06  4.3087951871341218e-05  8.8499354806281568e-06  4.3106084842420473e-05  3.9072102663219012e-05  1.9574424402535399e-05  3.9431847410764751e-05  2.0580893041435746e-05  2.0583046227245199e-05  2.2120762991803620e-05  3.8300989154676640e-05  2.3025887854693575e-05  2.4902208346137614e-05  1.3613137350828151e-05  5.3777729328173386e-06  3.6486516419686433e-06  1.0458128737276242e-06  -1.4755519371489630e-06  4.0686160449194632e-06  2.6202111853818125e-06  1.9972468655067216e-05  1.6794788472163024e-05  2.1109538068114045e-05  1.9311477250082978e-05  1.5644015344741755e-05  1.1345045472179360e-05  2.9293687791675543e-06  3.3424564918390086e-06  5.2969909450979889e-06  2.0821817452534245e-06  5.2028827696617520e-05  2.3650224406288032e-05  3.7226393793005514e-05  6.1637311704665571e-05  1.5479862270182799e-05  1.0623548528649175e-05  5.5701942663275828e-05  5.0112736738012059e-05  2.3605473870462687e-05  1.4861596840058337e-05  1.0729159304072714e-05  7.5562025611669070e-06  8.1161035531200447e-06  5.7118596823250434e-06  2.8573290704278278e-06  5.3960990939235241e-06  5.8318131880582909e-06  1.8660037670654896e-06  3.1047420322172433e-06  6.5062336628334194e-06  4.5287776202316816e-06  6.5671857379879172e-06  4.5475163603676031e-06  1.3998313684598542e-05  1.8832918969436038e-05  9.3845802656891568e-06  6.0794957272629591e-06  8.6039281037729903e-06  1.0210916468568241e-05  1.0117987779207416e-05  1.0974057794092058e-05  1.0207429158493337e-05  2.5864345292458497e-06  1.6560647959602207e-05  2.1900489615843935e-05  1.6015788282909286e-06  4.8917618447676359e-06  4.4770322544440257e-06  1.0885167332539689e-05  1.2174825288158124e-05  1.0282052706949883e-05  1.0971982128660281e-05  9.5007562627044465e-06  1.0122983015246401e-05  1.1917700430754232e-05  9.1548466552048502e-06  8.9924249097156786e-06  9.6443209684883018e-06  4.1553878283286055e-07  2.6676362212899344e-06  2.6138591617487418e-07  1.9554940194007476e-06  4.9291270123867494e-06  1.5806449535648819e-07  1.8561475028677853e-06  8.0167073972863049e-07  -4.0946299418570072e-07  2.3246418390593012e-06  3.8020886110632561e-05  2.3735735218141751e-05  1.9643843942686197e-05  2.2650895586913700e-05  1.9078621377784871e-05  1.6973560083860480e-05  1.6660242047852833e-05  1.5191594016346806e-05  1.5140886545941277e-05  1.4096399866058354e-05  6.3428100491596005e-05  5.5350412484594207e-05  4.0965044962746950e-05  5.2291041308462643e-05  1.8317217813775809e-05  8.8115673081754856e-07  7.3598876365229843e-08  1.4081356100597943e-05  8.9311090070875206e-06  9.2111178587675965e-06  4.0031346981460938e-06  1.3248580643192436e-05  1.3648209530025721e-05  5.7498164889189089e-06  4.4046255469899624e-06  3.2012082844969156e-06  8.8534712387567037e-06  4.1859786692601748e-05  1.7307820186255425e-06  8.9669061097998817e-06  2.4264676153544163e-06  4.5649774392886632e-06  3.2578309494909432e-06  8.6261899978025558e-06  2.2620902880491612e-06  1.7874080858420317e-05  2.3998375359345771e-05  1.2606389642789300e-05  1.3401778831116855e-05  3.6450982837769256e-06  2.9369533511571965e-06  1.0703984792233298e-06  -3.4070119038809853e-07  7.6084527790656201e-07  -2.4049148934958194e-07  1.0627705870819821e-06  9.1926328234061676e-07  9.4170535519789183e-06  1.0012773714908589e-05  1.0333976665841659e-05  1.1591497243120851e-05  1.1704631903304874e-05  1.3286571493945352e-05  1.2936383446735994e-05  1.4681506820833930e-05  1.4034895010262476e-05  1.5994965888369039e-05  1.5010805771697133e-05  1.6921857545518038e-05  1.5389822495927626e-05  1.7171966968266423e-05  2.0660509948841774e-06  2.4075805194818870e-06  3.2449934206633993e-06  3.7085859513402090e-06  4.2693818987092863e-06  4.5302067865709918e-06  4.8353278007671740e-06  4.6585008905907894e-06  1.2903197340417551e-05  1.3663929501707316e-05  1.5427433400398825e-05  4.5719981754692709e-06  5.3567933021531086e-06  6.6513051351664816e-06  1.5438858060588342e-05  1.6927249745400774e-05  1.4789905094562298e-05  1.5877045926772748e-05  1.3942919845221098e-05  4.8767149932326290e-06  4.3100601919888633e-06  4.5624033326243501e-06  3.7552810394592263e-06  4.1796210419390243e-06  3.9175524663745348e-06  3.9150525964072157e-06  5.8779472866090640e-06  3.4770496274788693e-06  2.8899156869745762e-06  1.7480228561330803e-05  1.6290608494061187e-05  4.2437458341979725e-06  2.5046371829786552e-06  1.8395548256731809e-05  8.4827087145217657e-06  2.7688716249656911e-06  1.3241735355257840e-05  1.6437243933317436e-05  1.2188420131620697e-05  1.0993399893879744e-05  1.1994623902832069e-05  4.4274330301767189e-06  3.7827005306275928e-06  4.1520729076406971e-06  -2.5660122301925899e-07  5.9687229080788755e-06  1.2988977735797602e-05  1.7731150577741668e-05  1.3382354485613992e-05  2.2300560557735314e-05  3.1050926684145566e-05  1.2267775297963542e-05  1.4166583641219660e-05  9.8387219163672699e-06  1.4010669529544651e-05  2.1952744337983136e-06  2.5378454002844213e-05  2.4058623271871332e-06  2.0019917047805777e-06  2.6981090715889307e-05  3.6653456794877012e-05  1.0689872623181559e-05  1.0010481422420423e-05  -1.0840518415069147e-06  2.7496964832794943e-05  2.5144163301908019e-05  3.0055232129554100e-05  2.6461887893843694e-05  3.1622225883359024e-05  2.6161069139588686e-05  3.0947994509567892e-05  2.2440777377216268e-05  3.8765217485483431e-05  3.6146861012533829e-05  4.4898062050638373e-05  4.0447480861685940e-05  4.9027774909011148e-05  4.3131763987979736e-05  5.1252206547075989e-05  5.2182569990957978e-06  4.4201490757381482e-06  6.9037284725832834e-06  7.9531035744407517e-06  3.9475611501007041e-05  4.5268627361594912e-05  5.8801266247661123e-06  4.5430593352679087e-05  5.0101868115020640e-06  1.1045565442619134e-05  3.3822858982829042e-05  2.9381675285695103e-06  2.0649888526477870e-06  2.6714080262913586e-06  1.5610428014975758e-05  9.0654825373479310e-06  7.5037810302486855e-06  8.6960377242285137e-06  1.2737223899228710e-05  4.7624409768921340e-06  4.4757013174446218e-06  1.1862445705002320e-05  1.2037036301464315e-05  1.7388971941487969e-05  1.7777574543878320e-05  2.4154202969557051e-05  2.1435811243217172e-05  2.8646824761139968e-05  3.2276595749790612e-05  3.7306583640577042e-05  3.0631505843266741e-05  3.7827782044181951e-05  2.9601200415251892e-05  3.6537018743862195e-05  4.3983239045699483e-05  4.2296329869919909e-05  3.3524969931513144e-05  3.8596057921571220e-05  2.9278680331005145e-05  3.2074255470669513e-05  3.8007423479079722e-05  3.1958809696151450e-05  2.6429587058796456e-05  2.6075378823561103e-05  2.1264477311008719e-05  1.9441337729876199e-05  1.6163118380141319e-05  1.4481617060375540e-05  3.0648370942643543e-06  2.3135635492567496e-06  3.6832709143194120e-06  1.4324028458342239e-05  1.4721015508212426e-05  2.7083547168183834e-05  7.9753817537724272e-06  1.7823821279181745e-05  1.8755828708536065e-05  1.4463697482258737e-05  5.2153947227785073e-05  2.4893287049037939e-06  3.0694642175022049e-05  3.8154920090258483e-06  4.6467288384071256e-05  2.2412945055989779e-05  1.1631087470280521e-05  1.1111121972056149e-05  5.5267140969898614e-05  1.2199245366082673e-05  1.1790619637654484e-05  1.9140978229648665e-05  4.1502475249281609e-05  1.3951422205254357e-05  4.6488321062818244e-05  5.1879109935627763e-05  3.9468441501315862e-05  3.4305208329373695e-05  4.6791373063413410e-06  4.6002213270479221e-06  1.1801252671067645e-05  5.6687303211848771e-05  3.9548032180581708e-05  1.6212876534864860e-05  1.6346497742136077e-05  1.0300948598209348e-05  8.4908259679835551e-06  5.9181916382199430e-06  2.0387582788052880e-05  4.0312114109065499e-06  3.9704620779418904e-06  3.6743765130624985e-06  1.7624149531077105e-05  4.9645621593801994e-05  1.1211100729483841e-05  8.9060559497934475e-06  1.0690073923504368e-05  3.6528678817213127e-05  4.16908846