<?xml version="1.0"?>
<VTKFile type="UnstructuredGrid"  version="0.1"  >
<UnstructuredGrid>
<Piece  NumberOfPoints="1297" NumberOfCells="2496">
<Points>
<DataArray  type="Float64"  NumberOfComponents="3"  format="ascii">0 0 0  0 1 0  1 1 0  1 0 0  1.1 -0.1 0  -0.1 -0.1 0  1.1 1.1 0  -0.1 1.1 0  0.2535697663429276 0.686673027008794 0  0.2515911136307915 0.3133433893024228 0  0.7486722593610891 0.3126927125554017 0  0.7495283399364849 0.684907138888001 0  0.5007050916521195 0.4994711796570785 0  0 0.9499999999997918 0  0 0.8999999999995836 0  0 0.8499999999996529 0  0 0.7999999999999998 0  0 0.7500000000003466 0  0 0.7000000000006934 0  0 0.6500000000010401 0  0 0.6000000000013869 0  0 0.5500000000017335 0  0 0.5000000000020587 0  0 0.4500000000018723 0  0 0.4000000000016644 0  0 0.3500000000014564 0  0 0.3000000000012483 0  0 0.2500000000010403 0  0 0.2000000000008322 0  0 0.1500000000006241 0  0 0.100000000000416 0  0 0.05000000000020799 0  0.04999999999989965 0 0  0.09999999999981467 0 0  0.1499999999997036 0 0  0.1999999999995579 0 0  0.2499999999994121 0 0  0.2999999999992664 0 0  0.3499999999991206 0 0  0.3999999999989749 0 0  0.4499999999988292 0 0  0.4999999999986943 0 0  0.5499999999988151 0 0  0.5999999999989468 0 0  0.6499999999990784 0 0  0.69999999999921 0 0  0.7499999999993417 0 0  0.7999999999994734 0 0  0.8499999999996051 0 0  0.8999999999997368 0 0  0.9499999999998684 0 0  1 0.04999999999989965 0  1 0.09999999999981467 0  1 0.1499999999997036 0  1 0.1999999999995579 0  1 0.2499999999994121 0  1 0.2999999999992664 0  1 0.3499999999991206 0  1 0.3999999999989749 0  1 0.4499999999988292 0  1 0.4999999999986943 0  1 0.5499999999988151 0  1 0.5999999999989468 0  1 0.6499999999990784 0  1 0.69999999999921 0  1 0.7499999999993417 0  1 0.7999999999994734 0  1 0.8499999999996051 0  1 0.8999999999997368 0  1 0.9499999999998684 0  0.9499999999997918 1 0  0.8999999999995836 1 0  0.8499999999996529 1 0  0.7999999999999998 1 0  0.7500000000003466 1 0  0.7000000000006934 1 0  0.6500000000010401 1 0  0.6000000000013869 1 0  0.5500000000017335 1 0  0.5000000000020587 1 0  0.4500000000018723 1 0  0.4000000000016644 1 0  0.3500000000014564 1 0  0.3000000000012483 1 0  0.2500000000010403 1 0  0.2000000000008322 1 0  0.1500000000006241 1 0  0.100000000000416 1 0  0.05000000000020799 1 0  -0.1 1.05000000000004 0  -0.1 1.000000000000079 0  -0.1 0.9500000000001624 0  -0.1 0.9000000000003032 0  -0.1 0.850000000000444 0  -0.1 0.8000000000005848 0  -0.1 0.7500000000007256 0  -0.1 0.7000000000008665 0  -0.1 0.6500000000010508 0  -0.1 0.6000000000012352 0  -0.1 0.5500000000014196 0  -0.1 0.500000000001539 0  -0.1 0.4500000000014195 0  -0.1 0.4000000000013 0  -0.1 0.3500000000011588 0  -0.1 0.3000000000010178 0  -0.1 0.2500000000008986 0  -0.1 0.2000000000007579 0  -0.1 0.1500000000006174 0  -0.1 0.1000000000005272 0  -0.1 0.05000000000040083 0  -0.1 2.671196597248127e-13 0  -0.1 -0.0499999999998666 0  -0.0500000000000906 -0.1 0  -1.730560139634463e-13 -0.1 0  0.04999999999975802 -0.1 0  0.09999999999961506 -0.1 0  0.1499999999994613 -0.1 0  0.199999999999302 -0.1 0  0.2499999999991446 -0.1 0  0.2999999999990088 -0.1 0  0.3499999999988296 -0.1 0  0.3999999999986936 -0.1 0  0.4499999999985143 -0.1 0  0.4999999999984002 -0.1 0  0.5499999999985247 -0.1 0  0.5999999999986493 -0.1 0  0.6499999999987955 -0.1 0  0.6999999999989417 -0.1 0  0.7499999999990659 -0.1 0  0.7999999999992116 -0.1 0  0.8499999999993573 -0.1 0  0.8999999999994526 -0.1 0  0.949999999999584 -0.1 0  0.9999999999997226 -0.1 0  1.049999999999861 -0.1 0  1.1 -0.0500000000000906 0  1.1 -1.730560139634463e-13 0  1.1 0.04999999999975802 0  1.1 0.09999999999961506 0  1.1 0.1499999999994613 0  1.1 0.199999999999302 0  1.1 0.2499999999991446 0  1.1 0.2999999999990088 0  1.1 0.3499999999988296 0  1.1 0.3999999999986936 0  1.1 0.4499999999985143 0  1.1 0.4999999999984002 0  1.1 0.5499999999985247 0  1.1 0.5999999999986493 0  1.1 0.6499999999987955 0  1.1 0.6999999999989417 0  1.1 0.7499999999990659 0  1.1 0.7999999999992116 0  1.1 0.8499999999993573 0  1.1 0.8999999999994526 0  1.1 0.949999999999584 0  1.1 0.9999999999997226 0  1.1 1.049999999999861 0  1.05000000000004 1.1 0  1.000000000000079 1.1 0  0.9500000000001624 1.1 0  0.9000000000003032 1.1 0  0.850000000000444 1.1 0  0.8000000000005848 1.1 0  0.7500000000007256 1.1 0  0.7000000000008665 1.1 0  0.6500000000010508 1.1 0  0.6000000000012352 1.1 0  0.5500000000014196 1.1 0  0.500000000001539 1.1 0  0.4500000000014195 1.1 0  0.4000000000013 1.1 0  0.3500000000011588 1.1 0  0.3000000000010178 1.1 0  0.2500000000008986 1.1 0  0.2000000000007579 1.1 0  0.1500000000006174 1.1 0  0.1000000000005272 1.1 0  0.05000000000040083 1.1 0  2.671196597248127e-13 1.1 0  -0.0499999999998666 1.1 0  0.2419409321541874 0.6664788284247376 0  0.2338930772723665 0.6426324554452258 0  0.2269682068383752 0.6181243887051801 0  0.2213774558262635 0.5937667806634275 0  0.2169661387426974 0.5699816874465962 0  0.2133933280474512 0.5466723708254038 0  0.2109313589049828 0.5234786412175698 0  0.2104669222679115 0.5003543402219008 0  0.2108819151288706 0.4772498507226169 0  0.2129370487261991 0.4538610501339704 0  0.2161479230854476 0.4303859035170586 0  0.2204235608640578 0.4067159218308362 0  0.2255536062877034 0.3825314583008283 0  0.2321336561600149 0.3578499091923778 0  0.2399668013916924 0.3338345829062664 0  0.2732291100533783 0.3039112198846986 0  0.2980972881001315 0.2973580669946272 0  0.3239257586216939 0.2916373348737424 0  0.349847051335504 0.2865682075733927 0  0.3754963352574496 0.2822471337069043 0  0.4007621370407863 0.2784047715780756 0  0.4257470651586344 0.2752141042377472 0  0.4506309454713483 0.2726195550574799 0  0.4755177163862814 0.2712092364282307 0  0.5002905822303448 0.2707221607211616 0  0.5250576781113189 0.2712880551841751 0  0.5498702538737835 0.2728023250908566 0  0.5748366439661521 0.2750613370820913 0  0.599882144935431 0.2783395250349971 0  0.6253269908326771 0.2820195260086099 0  0.6510502404836714 0.2862949341187931 0  0.6768532971218779 0.2912269062864247 0  0.702474521179451 0.2968197511478681 0  0.7271400979213863 0.3031885920897627 0  0.7598881955661612 0.3330812802928966 0  0.7682075250616195 0.3566418167755985 0  0.7751010070328648 0.3811598183094481 0  0.7805466697765235 0.4054203227144546 0  0.7849708999882355 0.4291706995634612 0  0.7881857867199475 0.4526254561963328 0  0.7900304425746772 0.4757812910349892 0  0.7904188440154833 0.498630468914751 0  0.7895188366470739 0.5214303863878097 0  0.7875110283469287 0.5443227417472094 0  0.7845674799486188 0.5676506684072843 0  0.780441116097252 0.5913009360365218 0  0.7754930194092848 0.615873086831482 0  0.768863694859811 0.6405566305494735 0  0.7608584302480264 0.6644142888173395 0  0.7279551565455288 0.6945365286787745 0  0.7032282147538036 0.7008643515084056 0  0.6778094435949362 0.7067317030538663 0  0.6520228474835865 0.7120589795642286 0  0.6263130115416053 0.7167248588580512 0  0.6007794584962146 0.7206676188354688 0  0.5757285786216406 0.724069760933878 0  0.5508359228532416 0.7264111666656707 0  0.5261200810830272 0.7278847811235987 0  0.5015025600564021 0.728367936193842 0  0.4768512640472489 0.7279394566407147 0  0.4521110960263672 0.7264269608562569 0  0.4273452812899115 0.7239484342601553 0  0.4022941312175482 0.7208889747407691 0  0.3768734846755224 0.7172026452882119 0  0.3512720477316935 0.7128672763027998 0  0.3254378010226263 0.7079317771389823 0  0.2997329203384616 0.7023186375794763 0  0.2750568082619447 0.6959105812722055 0  0.360672019020447 0.3092939634512797 0  0.2420100197180454 0.4409829474507184 0  0.3620380506807986 0.690162108035666 0  0.2426543064193032 0.5593329801960246 0  0.7575159118122209 0.5807414809926187 0  0.614996929104918 0.6946174913905001 0  0.6389592947648252 0.3083646232527645 0  0.7608751375043845 0.4390381800356097 0  0.762824094312838 0.5096795247095832 0  0.5624773528367061 0.2977766149378167 0  0.4383658947922365 0.2999776816302417 0  0.4382713075339419 0.6995425875137337 0  0.53895515418927 0.7018538024659287 0  0.2386495362736235 0.4883774565471466 0  0.2473673150981809 0.3927536299917871 0  0.4879246756889503 0.2996437146949654 0  0.255307215872863 0.6059526563118842 0  0.7462505402787739 0.3893402097376652 0  0.4889280211811933 0.7027252740760985 0  0.6669437355253527 0.6853181592013406 0  0.3077378362555658 0.3209065804662148 0  0.6933184779719638 0.3218789833719003 0  0.3102567337399835 0.6812761050271851 0  0.7451939807244048 0.631599261725649 0  0.2605777474742172 0.3442087321275665 0  0.2649819331648168 0.6544480295870501 0  0.7184996191899273 0.6745343932819817 0  0.7404982068743102 0.3428521270719195 0  0.3361180088079444 0.6859652639320316 0  0.3471026782999116 0.664227468870292 0  0.3730257574300344 0.6674167525174587 0  0.3575568068963565 0.6416795841515501 0  0.3847419691407057 0.644230633230044 0  0.3680812555434377 0.6161113097156452 0  0.4007254351259433 0.6183653101751463 0  0.3809683718031736 0.5852006682192915 0  0.3355342331272304 0.6127853377628666 0  0.4207750614808751 0.5864709007078734 0  0.3968399181508926 0.5490179384837902 0  0.3497275903683514 0.5539111864924126 0  0.3692725496678001 0.5142421112076085 0  0.3240960345693638 0.5163055282444551 0  0.3397318442410125 0.4813521667351519 0  0.3870237965111396 0.4755564121063434 0  0.3623092632203709 0.4424454991997309 0  0.404968494670728 0.4361378903757949 0  0.3818931367732842 0.404649665144605 0  0.420674250040145 0.3914713353806829 0  0.3413822828337056 0.4074460418429152 0  0.3933194711966067 0.3701679152769683 0  0.4321591604477498 0.6215127132557643 0  0.461108468335084 0.5952672656551792 0  0.4825441329972655 0.6228474568179091 0  0.503501592375889 0.5971137494542543 0  0.523646518949538 0.6229604044234575 0  0.5448637537062544 0.5972314426550476 0  0.5643533012123667 0.6229830440161602 0  0.5858621218902739 0.597428562243481 0  0.605711565773583 0.6254044489385782 0  0.6269606803642137 0.5902645024934815 0  0.60875243601894
[...]
<PointData  Scalars="v"> 
<DataArray  type="Float64"  Name="v"  format="ascii">4.2957900120354027e-21  6.4889612291720747e-21  -9.0625583586442156e-22  3.3096339952924120e-21  -1.0644304297436670e-22  -1.1476817542405546e-22  6.1498488056094991e-24  -3.8935495942748430e-22  1.9172406648598304e-05  -4.2668830404909675e-06  -2.7067634976154282e-05  -2.2050986894282527e-06  -3.4120880240574961e-05  1.1824699945352202e-20  2.3627905994378580e-20  -1.1775253016042998e-20  -4.3021175307391016e-20  6.8037853773692180e-20  1.2839034736571073e-19  -5.1815734974700980e-20  2.5029603569329443e-19  2.5091509975126559e-19  -3.2121100174286361e-19  -7.8521003914527709e-21  1.6102986072564553e-19  5.1182155794858101e-20  -3.0176132829567763e-20  -2.5318270126786988e-20  1.3582672452840939e-20  -5.7706863695864487e-22  -2.6597111688444152e-20  1.9382143840141760e-20  -7.6087227271077275e-21  1.3737836587276290e-20  4.9986765148456202e-20  -6.1934436301448397e-21  4.5814857019548457e-21  6.4536598515562928e-20  8.1536838881468795e-20  4.1661499812120051e-20  -9.6966633497894361e-20  9.6960554135720786e-20  -8.0328460939279321e-20  -1.0550559493412618e-19  7.6703337083773820e-20  6.2083985943481226e-21  -2.7899471853770840e-21  1.0571772952974699e-19  -6.7139341503542254e-21  2.1518809412623920e-20  -3.3481488199935056e-21  1.5503723412119178e-20  1.5537789594848004e-20  -2.3041283365762048e-20  1.3626331610097589e-20  7.2882085768935252e-20  -4.0121036222956302e-20  9.1075893245324483e-21  2.8086277407780357e-19  -2.1777245137505695e-20  6.7400825592299523e-21  3.1319977545681310e-20  8.5728393773913947e-20  -3.1562119130754111e-22  -3.5771599968546392e-20  3.6997917370025373e-20  -5.0520385214446479e-21  5.4824646380403162e-22  4.4715822657503046e-20  3.3021056189521628e-21  -1.3858162025300760e-21  1.0833201694365680e-20  5.8300500941759026e-21  8.1296682926500150e-20  6.1326203840657383e-20  -2.2779246254881829e-20  2.4594093492049055e-20  1.2438100058715349e-19  5.3364781130729146e-20  3.7546887236645981e-20  3.9413846264535232e-20  -5.5237808607343338e-20  -1.6996649868697022e-20  -2.6899536001687093e-20  -2.9569497951164370e-20  -1.3649484069887214e-21  6.2654565839414585e-20  -2.3491815879091611e-20  -3.2706851893756337e-20  4.6790464265398512e-23  5.7802433555997585e-22  2.4802397678609319e-21  2.2943593266607061e-21  -3.4728504213949659e-21  -3.2773960551095678e-21  1.1547732510165994e-20  1.1033549147498641e-20  1.9443194861822653e-21  3.5037775390114848e-20  2.1576264190493764e-20  -2.6756129468168646e-20  -6.3417202189892721e-21  2.1368646469507626e-20  9.6753457742005934e-21  -6.8659712609638847e-21  -5.3398381953595758e-21  -2.8740835424076730e-22  -4.5587382863695612e-22  -2.3173254107959098e-21  1.2739041409209619e-21  1.4548155824580447e-21  -3.1683573804791572e-22  2.7073791907827738e-22  2.2941909871481237e-22  -8.2926313058712500e-22  2.7482497694584541e-21  5.4230416994864854e-21  7.1017187044887224e-23  1.5615257064828398e-21  7.1269927930059585e-21  1.3162062279008011e-20  1.2719491977386672e-21  -5.3278095381117825e-21  5.4248016118206938e-21  -7.5034045368366701e-21  -1.5824062491075282e-20  4.8064669740457105e-21  3.3487924269075236e-21  1.3100327390494804e-21  1.4589120088443620e-20  4.3240365920465263e-21  -2.2794105839414212e-21  6.3582818462643319e-22  -2.1019263265777772e-23  2.0984408153107701e-22  -1.0645450427570522e-22  5.6646962052192239e-22  2.4524779939548250e-21  1.1130379007713488e-21  -2.2202030847871297e-21  3.0196790923733381e-21  8.0606907372620992e-21  -6.6924629619947544e-21  6.4901099258596669e-21  2.8457498863275405e-20  7.5099846527238270e-21  -4.1865675384986266e-21  7.3296104009146847e-21  9.7706387675838565e-21  1.2654211455902016e-22  -3.8144782286142766e-21  5.0739622890732770e-21  -2.2483665553644271e-22  9.6598247909164317e-22  4.6001475084014637e-21  1.4916242461365394e-21  -5.4014839898548918e-22  7.4806663922008388e-23  4.5158708992776176e-23  -2.9403284621948360e-22  2.5543620549665396e-22  3.4873599708664743e-22  4.0776337642808422e-21  3.2348919969002153e-21  8.0638364332402770e-21  -2.0837809311116478e-21  5.6702566313606836e-21  1.1046100642796632e-20  6.0676541079609040e-21  7.0214096076086557e-21  2.9988666029450918e-21  -5.1088849755869181e-21  -4.2049064718178104e-21  -4.0459533561803316e-21  -6.5841536539500692e-21  4.6665522284814676e-21  9.5728616035279764e-21  -2.6927685234793304e-21  -4.3456251011532644e-21  2.5927694784818008e-22  5.4862760023223743e-22  2.7398451249169396e-05  3.7514267655034408e-05  4.9501759199618481e-05  5.8866308865582174e-05  6.6757000656515232e-05  6.8969712876701839e-05  6.9523913137171662e-05  7.2107059233541865e-05  6.5873573228728927e-05  6.1438872057936392e-05  5.4637754152689772e-05  4.6379988429241563e-05  3.3056030314465839e-05  1.9076697561067602e-05  7.1151426463369359e-06  -1.1229319259159237e-05  -1.7137660522942073e-05  -2.3914037632828232e-05  -3.0471694521030219e-05  -3.6148286816389439e-05  -4.1170442588105759e-05  -4.6302778908092787e-05  -5.0763547171054764e-05  -5.3904152727836865e-05  -5.5507236543240218e-05  -5.6819763420698496e-05  -5.6945003189033731e-05  -5.5939524478204486e-05  -5.2791868150291601e-05  -4.9985688378084911e-05  -4.6839011208583286e-05  -4.2339176592933814e-05  -3.7193324549621886e-05  -3.2831192677548861e-05  -1.6773140856911892e-05  -6.2795308485464344e-06  6.2475235624756798e-06  1.8319615329926713e-05  2.5703199549532786e-05  3.3069459885735211e-05  3.8356283899581242e-05  4.2198035121725195e-05  4.2444357146381739e-05  4.0825414329401534e-05  3.8258957166907710e-05  3.1804070171188354e-05  2.4381755245349952e-05  1.3665697513927641e-05  5.0318308791493994e-06  -6.4881556431535638e-06  -8.9492972583768746e-06  -1.2332952561728726e-05  -1.4932984558618155e-05  -1.7356771784072077e-05  -1.9411215627884913e-05  -2.1426798981849487e-05  -2.1581619635428398e-05  -2.1763815225066586e-05  -2.0913289623325913e-05  -1.9129860863760871e-05  -1.6553573210115274e-05  -1.2776477510533030e-05  -8.6292682748662788e-06  -4.1819786122864130e-06  8.1160706466264869e-07  5.3855448083146273e-06  1.0199567777569911e-05  1.4700565332471454e-05  -3.1935178414288028e-05  4.3372648991045608e-05  -1.6880926960107547e-06  5.2800040326470539e-05  2.0896921743711066e-05  -2.0764496765200189e-05  -4.8847268975781611e-05  1.5253123775556541e-05  2.7178480828006134e-05  -5.7831551489248544e-05  -4.9701583104128497e-05  -1.6161697549939841e-05  -2.4419553037525166e-05  5.4344170391758158e-05  2.5082609413435688e-05  -5.6478527437480569e-05  4.0512793744306679e-05  -4.6721661645025476e-06  -2.2331430316939678e-05  -1.4643446740006355e-05  -1.5395070319741181e-05  -3.6226989422573340e-05  9.9425385601295395e-06  8.5505247966548423e-06  -1.9770972608025492e-06  2.4426597004027258e-05  -1.1937386144391438e-05  -2.7334521606046559e-05  3.9579143237854598e-06  3.0776701048919962e-06  -2.9275588632204337e-06  2.7141239629556182e-06  -4.6025297838271528e-06  1.3526231928719165e-06  -8.2007034561445817e-06  -2.3332899352341896e-06  1.1104513337312005e-05  -1.3995384201412256e-05  -8.2822411026385098e-06  1.0012717749466369e-05  4.8013757858093692e-07  2.0929215283984008e-05  9.9584935298349688e-06  -1.1384334697618702e-05  -7.1164622248454259e-06  -2.4408743448713427e-05  -2.2447666925080188e-05  -3.7446420080917087e-05  -6.5383016150351571e-06  -3.3134258257390338e-05  -1.6882981549333926e-05  -2.3158633907516323e-05  -2.4926634684928401e-05  -2.8742456799134746e-05  -2.7728617964958637e-05  -2.9592995433338148e-05  -2.7519071876778552e-05  -2.5901439996315293e-05  -2.2620309658905041e-05  -1.8304630930150003e-05  -2.2860212478944525e-05  -1.1000655630601272e-05  -1.8929991866614582e-05  -7.5450020634038002e-06  2.2178248113372797e-06  -2.4072503046883564e-05  -2.0681737988333439e-05  2.9805808048161277e-05  4.0473608800872369e-05  -4.5854360216327427e-05  -4.7351446240664647e-05  -9.0003384673070502e-06  -4.2614659692786809e-05  -2.5526982300579933e-05  -2.6280233651231900e-05  -5.4287917388040381e-05  -5.2297051659044776e-05  -5.7653208623536698e-05  -5.4772790826033826e-05  -4.8517341677898326e-05  -4.9640521745622576e-05  -5.1926964785301316e-05  -4.5420923243025191e-05  -3.8953460640594988e-05  -3.2013995091128848e-05  -3.8004387788316856e-05  -2.5585872546123360e-05  -1.9538591598753477e-05  -3.3460630889698002e-05  -1.8635737257519612e-05  -2.5336797874635846e-05  -3.6811671706392687e-05  -2.9499770782447047e-05  5.5686575251523852e-06  -6.7230509876320198e-06  1.5263653560964753e-05  1.2037459262150672e-05  4.4495917311640266e-06  -3.7063860104753825e-06  -1.2560248344841997e-05  -5.7199855622709185e-05  -5.8070489897525146e-05  2.1163491921423179e-05  -5.0787743115924583e-05  1.4071753033987198e-05  1.1462456921258384e-05  -4.1233411925619474e-06  2.6809435878299420e-05  3.4672616858839185e-05  1.1699989797246896e-05  -1.5658988001101867e-06  -1.4944273538717606e-05  4.6665568378736052e-05  3.6756490717725235e-05  5.3298880965550804e-05  2.2267682151446798e-05  -4.2945334968375347e-05  2.6580173507822469e-05  -2.7136554766953563e-05  -4.4907825427071046e-06  1.0262496084643865e-05  -4.0652578031228513e-06  7.6662513415856879e-06  1.8960612169967934e-05  1.5467629306264850e-05  2.5059063315600902e-06  -2.3247814253519986e-05  -3.1815327210880454e-05  4.3953057607607186e-05  -2.8315944208508590e-05  -3.0121327067663987e-05  -1.8494171927490913e-05  -1.5993719055089499e-05  -1.7152293246057158e-05  -4.2290690658817155e-05  -4.8287342191753008e-05  -5.3974770644163815e-05  -4.8510551965051188e-05  2.5935163031375270e-05  1.9180747278981332e-05  3.8867577897786217e-05  -1.4164787431398335e-05  -1.1918079502415494e-06  -2.4710784708840545e-05  4.9070109640100428e-05  4.7951844252148587e-05  -1.9686493903914746e-05  1.2359954415659843e-05  1.9825158809665858e-05  1.4762066343696755e-05  -1.1874402010068845e-05  -1.4124512654891180e-05  -1.1393828999991388e-05  1.3399575191882215e-05  -6.9985248618917185e-06  -5.5602514222803079e-05  -4.4110812499261904e-05  -4.4673159674901154e-05  -5.4684129669000005e-05  -3.8495480592084680e-05  3.4739369444956433e-05  3.0270005027886751e-05  -2.3780573393351872e-05  6.3947684840542158e-06  3.5825102758566799e-06  -2.2813897439891698e-05  -2.2283875929518967e-05  -2.4022047941434800e-05  -1.8146481017005905e-05  -1.7006813043777661e-05  -1.7732318588517310e-06  -6.0900925343566591e-06  -5.5706517801217212e-05  -1.0241721785419621e-05  -5.2526057478143608e-05  -2.5263191781999771e-05  -1.7158465702284628e-05  8.9763419285174977e-06  -6.2780055801880576e-06  -4.2800147416146724e-05  2.4847477175440719e-05  -3.7310670741163891e-05  -3.3335780649886576e-05  2.0130733250400856e-05  4.8077443413541698e-05  3.4805960855830390e-05  1.1890625707041736e-05  -1.1790056563511600e-05  -6.0189683537488522e-05  -1.6006075878718208e-05  -2.5671310410442371e-05  -1.2069751836706877e-05  -5.9638331701110664e-05  3.7360263084902043e-05  -1.6719064349724060e-05  -1.9797256365201451e-05  -2.5301839449018503e-05  9.4719015312698482e-06  -4.4122626571050173e-05  -2.1858307573916199e-05  -3.8939053615875385e-05  -1.8340052775903186e-05  5.6873549237128104e-05  2.5447655623301456e-05  -3.0615300750330514e-05  3.5192831961778697e-06  -2.5442480724323323e-05  -5.2188306715972359e-05  -5.1293044665171096e-05  1.2219780811889730e-05  -1.7694010410214466e-05  -1.6785136342726337e-05  2.1979693584203526e-05  -3.6927166878958996e-05  9.9590990710619153e-06  -2.4686727439700643e-05  -5.5566041119640282e-05  -5.7822091230667006e-05  -2.4374339169229215e-05  -4.5493628433691065e-05  5.6146453174451843e-05  -3.2287993188453976e-05  -2.4400584793646318e-05  -3.5617374501555589e-05  3.4422558945642920e-05  -2.3578344867480365e-05  -2.8378024872278870e-05  -6.7822093066973823e-06  -5.4178573159516276e-05  -2.7369875087197883e-05  -2.4026214462393533e-05  4.4939246343086756e-05  -1.9363150783987080e-05  -2.0377796829868566e-05  -2.6385306943263811e-05  -4.7582350209928412e-05  2.8756332193893064e-05  -2.6123839101764946e-05  -2.3858256382336281e-05  -4.7442371087472665e-05  2.1885261858957588e-06  -2.2192019375546957e-05  3.1199261527205115e-05  -3.8111381742521323e-05  1.1852566700927043e-05  2.2393177470377126e-05  -5.6392087794890727e-05  -2.4901616058142641e-05  2.2019696119336928e-05  -1.4730878319408992e-05  -1.4235961706166059e-05  -2.8690351133170715e-05  -4.9084550093849839e-05  -2.7105499236196242e-05  1.6908153251915154e-05  -2.1482626362264775e-05  -6.3693102409867434e-06  -1.4424198079317615e-05  -4.2151444571352330e-05  2.5766050384159335e-05  -4.0037359146728331e-05  -3.6558128437052848e-05  -5.7396522192588443e-05  2.4841179599005618e-05  -5.4169763130140097e-05  -3.4419780776177392e-05  2.7301275069829837e-05  -1.9281680602385591e-05  -1.5438888611558428e-05  -6.1843319264151853e-06  7.2197982872833420e-06  -1.6981321600764464e-05  -1.0263956167360983e-05  -4.9571107968796057e-05  -3.7399170962253766e-05  -5.3730494048000185e-05  -4.9549355043553859e-05  -3.8974620495927375e-05  -2.0498868834896897e-05  2.7655886340329897e-06  8.9516092613361622e-07  -1.2726563463156328e-06  4.7286822071549576e-06  6.3709367832423533e-05  4.4006525439835703e-05  3.2806709191863420e-06  3.2171642098118023e-05  7.9768645324295688e-06  4.1536566117857094e-06  3.5771988823139269e-05  5.3556460418311583e-05  1.8993864621676894e-05  8.9586909421044255e-06  5.9757676161206131e-06  2.1447224142561031e-06  4.4226218890690466e-06  1.2413464516831087e-06  -1.6504055028172650e-07  -5.2400486437329234e-06  -6.4531819630306942e-06  3.7218485195129726e-07  7.7297704110653024e-06  1.7520221878237438e-06  4.0585759245231842e-06  3.8621752565148182e-06  5.6373091806472181e-07  9.8829327104356495e-06  1.3295819928192288e-05  1.2930341514565329e-05  1.1077733620940173e-05  3.7999696409560249e-06  6.1367544169321056e-06  1.2060946127069774e-05  7.7693906413252004e-06  1.1446944854185238e-05  8.2634441823191763e-07  1.3058086369927790e-05  1.6747702120477925e-05  2.4883586971922110e-06  -4.3975796215738586e-06  -3.1785436656519367e-06  -7.5040992225945957e-06  -1.2182180035840985e-06  -6.6855795806216731e-06  -1.5311319601810628e-06  -5.8747296523513461e-06  -8.9181188221990689e-07  2.8852159497827064e-06  -4.1167310062585542e-06  -8.8698457986846615e-06  6.8133059312011611e-07  1.6980299129029364e-05  2.1381774520179123e-05  1.6918447811499586e-05  2.0222549456818301e-05  2.4575347173600013e-05  1.6389287598805135e-05  1.9258943648463353e-05  1.5968299073049898e-05  1.3183504136844264e-05  1.7984505698014387e-05  3.8232902443621346e-05  -1.3068839719504964e-05  -1.8086497907198272e-05  -1.1017255555257513e-05  -1.4512970195112443e-05  -2.0212052207106685e-05  -1.5907906876509200e-05  -2.0653740752714722e-05  -1.5239811475309721e-05  -1.9344514862806079e-05  3.8162470814947553e-05  6.2261258100205114e-05  5.7575476636903005e-05  2.0282979860311240e-05  -1.0702453390407073e-05  1.3353695109494564e-05  1.0440352610710189e-05  -1.3213283258894869e-05  -5.9710998664298231e-06  -1.1736783540811737e-05  4.1136385992890651e-06  -1.6674243102828534e-05  -2.4007084226349960e-05  3.7007240935231255e-06  1.3070310505633812e-06  -2.1264384797551096e-06  6.6268620543888083e-06  2.7669327790671968e-05  1.1179537579709899e-05  -6.4488423780870506e-06  5.3290478568287066e-06  1.1934130963142297e-06  2.4735471383367725e-06  -1.5555895439390032e-06  1.3442476380176291e-05  1.4834883538230170e-05  1.8964346208333039e-05  -1.9332244667944952e-05  -2.6237429120841843e-05  -6.7563987604759971e-07  -3.9492442318122456e-06  8.1298826475287672e-06  6.6658326120868835e-06  4.5790751298526698e-06  2.4500782389911341e-06  1.1120362392553887e-06  -1.7108397629727987e-06  -1.1373559700216774e-05  -1.7125400500234237e-05  -1.5859309240665974e-05  -2.2527367121072830e-05  -1.9789814760106719e-05  -2.7002547271893151e-05  -2.3256488946326226e-05  -3.1108630655811984e-05  -2.6156084283430595e-05  -3.4202484115488381e-05  -2.8008886606631072e-05  -3.6069006487964073e-05  -2.8970893635347957e-05  -3.6673843741985472e-05  -1.6310201396234294e-06  -4.7759062123146731e-06  -3.7858799290514437e-06  -7.2402338589536654e-06  -5.4077046284018462e-06  -9.0770158449833010e-06  -6.4255121234566818e-06  -1.0195597477835842e-05  -1.0310501957910688e-05  -7.2138102740916058e-06  -2.5723388091348460e-05  -2.1521341287010687e-06  3.7452352888566919e-06  5.7498126957138171e-06  -2.9133118017619491e-05  -3.5930865595911927e-05  -2.8143573559077926e-05  -3.4473309736408763e-05  -2.6157320033746300e-05  -7.0115421735971372e-06  -1.0399492385567698e-05  -6.7297862999704066e-06  -9.6563346530706819e-06  -5.8065791755922276e-06  2.1340694780955024e-05  1.8708332068021468e-05  2.1662794416887813e-05  -1.3493201244521462e-05  -1.2050953349219611e-05  -4.1962450376670158e-05  -3.9854767457000621e-05  -1.3376806374306597e-05  8.7123423205922935e-06  -4.3020950401320385e-05  -6.2031715283345037e-06  -8.6151180506342565e-06  -2.0874220169329491e-05  -3.8591112141682750e-05  -2.0727483451443388e-05  -1.4082414551873508e-05  -4.9903946383457224e-06  -3.3129867135464665e-06  -1.7832410788890865e-06  9.2577286540319713e-07  -1.4029818939047472e-06  5.3204583008748758e-06  -2.9464945171983402e-05  1.4957621339823604e-05  1.1965380458517838e-05  1.7794482892274205e-05  2.3264125384011932e-05  -2.5198834230334187e-06  -3.5504877843311046e-06  -7.1515208487563056e-07  -3.1094173478026707e-05  2.2009873271383388e-06  1.7790648024266200e-05  -5.4235030025773338e-06  7.6071931592537487e-07  2.0353052806101302e-05  2.6202801167197675e-05  -1.5754237890495021e-05  -1.2523787562115429e-05  1.2782558562943040e-05  -5.5379619436817021e-06  -4.4029028318473908e-06  9.3316238996179475e-07  1.4336223173896647e-06  7.0934206089696062e-06  6.2147945647850602e-06  1.1534888587230828e-05  8.6568368281475816e-07  1.4017452361795627e-05  1.7240157067305841e-05  2.1657584569842330e-05  2.2439143176908348e-05  2.7115346113696799e-05  2.6270100282598808e-05  3.0578782041604981e-05  1.7680550681705467e-05  1.5944856865058296e-05  6.6673350817445007e-06  7.4515435735472131e-06  2.7672017553597290e-05  3.0628619408829883e-05  5.6937469919992957e-06  2.9299741050864371e-05  3.8355688934508501e-06  -7.1596913975003308e-06  2.0751182218786357e-05  5.8119068911071487e-07  4.0971893290565870e-06  1.8932085198132321e-06  6.5528340069914233e-06  2.9478093312206558e-05  2.6110225584925081e-05  2.4476017127567333e-05  3.1280399038945555e-05  1.3581245746007585e-05  1.2624657524975207e-05  -3.0482405134744573e-08  2.6332797371049886e-05  3.3745737782933985e-05  3.6992498461348485e-05  4.1607182271782625e-05  3.4788293811065578e-05  4.2772032407763250e-05  4.8638449933410642e-05  5.0836144074546915e-05  4.1708543034778102e-05  4.8409947357966722e-05  3.7868623979250645e-05  4.4540359163906960e-05  5.3379189482157502e-05  4.9338269370283418e-05  3.9492852854183245e-05  4.3835408479041380e-05  3.3675305755897684e-05  3.5766601039738327e-05  4.1533385884774374e-05  3.4294105117876176e-05  2.8814283346359873e-05  2.6861601417441692e-05  2.2525477531285983e-05  1.8492197819099377e-05  1.6371533092864251e-05  1.2745335811419488e-05  -1.5674343639781472e-05  -1.3516354930213178e-05  -1.6461859122491698e-05  -3.2762956911144957e-05  -3.7101958111496509e-05  1.2932342408999542e-05  1.9544738511991609e-05  -4.6539490587185021e-05  -4.7888957502442012e-05  -3.4099803259815203e-05  2.5581105119164771e-05  -9.7002495605919372e-06  2.2006845249910079e-05  -1.7531473638735171e-05  1.8846455462722539e-05  2.0531620780527688e-05  1.1219104225926516e-05  8.8212086780927373e-06  3.0351267227132147e-05  -1.9787724358128206e-05  -1.7728690622113961e-05  -5.0025833028525883e-05  1.2613378749113870e-05  -1.0083621484517801e-07  3.1003381657615018e-05  3.3507209101797471e-05  2.6966320402562780e-05  2.4452177002273467e-05  -3.2087353496263589e-06  -2.4376746702957811e-06  1.2296636630774760e-05  3.3424258362514993e-05  5.4611856587034630e-05  -3.3109910643654955e-06  1.458176977299