<?xml version="1.0"?>
<VTKFile type="UnstructuredGrid"  version="0.1"  >
<UnstructuredGrid>
<Piece  NumberOfPoints="1297" NumberOfCells="2496">
<Points>
<DataArray  type="Float64"  NumberOfComponents="3"  format="ascii">0 0 0  0 1 0  1 1 0  1 0 0  1.1 -0.1 0  -0.1 -0.1 0  1.1 1.1 0  -0.1 1.1 0  0.2394657692960729 0.6964108952260073 0  0.2381047507510861 0.3032910377226272 0  0.761221534516068 0.3027642877114709 0  0.7617132970505902 0.6955932830670328 0  0.5000055473482968 0.499373637990059 0  0 0.9499999999997918 0  0 0.8999999999995836 0  0 0.8499999999996529 0  0 0.7999999999999998 0  0 0.7500000000003466 0  0 0.7000000000006934 0  0 0.6500000000010401 0  0 0.6000000000013869 0  0 0.5500000000017335 0  0 0.5000000000020587 0  0 0.4500000000018723 0  0 0.4000000000016644 0  0 0.3500000000014564 0  0 0.3000000000012483 0  0 0.2500000000010403 0  0 0.2000000000008322 0  0 0.1500000000006241 0  0 0.100000000000416 0  0 0.05000000000020799 0  0.04999999999989965 0 0  0.09999999999981467 0 0  0.1499999999997036 0 0  0.1999999999995579 0 0  0.2499999999994121 0 0  0.2999999999992664 0 0  0.3499999999991206 0 0  0.3999999999989749 0 0  0.4499999999988292 0 0  0.4999999999986943 0 0  0.5499999999988151 0 0  0.5999999999989468 0 0  0.6499999999990784 0 0  0.69999999999921 0 0  0.7499999999993417 0 0  0.7999999999994734 0 0  0.8499999999996051 0 0  0.8999999999997368 0 0  0.9499999999998684 0 0  1 0.04999999999989965 0  1 0.09999999999981467 0  1 0.1499999999997036 0  1 0.1999999999995579 0  1 0.2499999999994121 0  1 0.2999999999992664 0  1 0.3499999999991206 0  1 0.3999999999989749 0  1 0.4499999999988292 0  1 0.4999999999986943 0  1 0.5499999999988151 0  1 0.5999999999989468 0  1 0.6499999999990784 0  1 0.69999999999921 0  1 0.7499999999993417 0  1 0.7999999999994734 0  1 0.8499999999996051 0  1 0.8999999999997368 0  1 0.9499999999998684 0  0.9499999999997918 1 0  0.8999999999995836 1 0  0.8499999999996529 1 0  0.7999999999999998 1 0  0.7500000000003466 1 0  0.7000000000006934 1 0  0.6500000000010401 1 0  0.6000000000013869 1 0  0.5500000000017335 1 0  0.5000000000020587 1 0  0.4500000000018723 1 0  0.4000000000016644 1 0  0.3500000000014564 1 0  0.3000000000012483 1 0  0.2500000000010403 1 0  0.2000000000008322 1 0  0.1500000000006241 1 0  0.100000000000416 1 0  0.05000000000020799 1 0  -0.1 1.05000000000004 0  -0.1 1.000000000000079 0  -0.1 0.9500000000001624 0  -0.1 0.9000000000003032 0  -0.1 0.850000000000444 0  -0.1 0.8000000000005848 0  -0.1 0.7500000000007256 0  -0.1 0.7000000000008665 0  -0.1 0.6500000000010508 0  -0.1 0.6000000000012352 0  -0.1 0.5500000000014196 0  -0.1 0.500000000001539 0  -0.1 0.4500000000014195 0  -0.1 0.4000000000013 0  -0.1 0.3500000000011588 0  -0.1 0.3000000000010178 0  -0.1 0.2500000000008986 0  -0.1 0.2000000000007579 0  -0.1 0.1500000000006174 0  -0.1 0.1000000000005272 0  -0.1 0.05000000000040083 0  -0.1 2.671196597248127e-13 0  -0.1 -0.0499999999998666 0  -0.0500000000000906 -0.1 0  -1.730560139634463e-13 -0.1 0  0.04999999999975802 -0.1 0  0.09999999999961506 -0.1 0  0.1499999999994613 -0.1 0  0.199999999999302 -0.1 0  0.2499999999991446 -0.1 0  0.2999999999990088 -0.1 0  0.3499999999988296 -0.1 0  0.3999999999986936 -0.1 0  0.4499999999985143 -0.1 0  0.4999999999984002 -0.1 0  0.5499999999985247 -0.1 0  0.5999999999986493 -0.1 0  0.6499999999987955 -0.1 0  0.6999999999989417 -0.1 0  0.7499999999990659 -0.1 0  0.7999999999992116 -0.1 0  0.8499999999993573 -0.1 0  0.8999999999994526 -0.1 0  0.949999999999584 -0.1 0  0.9999999999997226 -0.1 0  1.049999999999861 -0.1 0  1.1 -0.0500000000000906 0  1.1 -1.730560139634463e-13 0  1.1 0.04999999999975802 0  1.1 0.09999999999961506 0  1.1 0.1499999999994613 0  1.1 0.199999999999302 0  1.1 0.2499999999991446 0  1.1 0.2999999999990088 0  1.1 0.3499999999988296 0  1.1 0.3999999999986936 0  1.1 0.4499999999985143 0  1.1 0.4999999999984002 0  1.1 0.5499999999985247 0  1.1 0.5999999999986493 0  1.1 0.6499999999987955 0  1.1 0.6999999999989417 0  1.1 0.7499999999990659 0  1.1 0.7999999999992116 0  1.1 0.8499999999993573 0  1.1 0.8999999999994526 0  1.1 0.949999999999584 0  1.1 0.9999999999997226 0  1.1 1.049999999999861 0  1.05000000000004 1.1 0  1.000000000000079 1.1 0  0.9500000000001624 1.1 0  0.9000000000003032 1.1 0  0.850000000000444 1.1 0  0.8000000000005848 1.1 0  0.7500000000007256 1.1 0  0.7000000000008665 1.1 0  0.6500000000010508 1.1 0  0.6000000000012352 1.1 0  0.5500000000014196 1.1 0  0.500000000001539 1.1 0  0.4500000000014195 1.1 0  0.4000000000013 1.1 0  0.3500000000011588 1.1 0  0.3000000000010178 1.1 0  0.2500000000008986 1.1 0  0.2000000000007579 1.1 0  0.1500000000006174 1.1 0  0.1000000000005272 1.1 0  0.05000000000040083 1.1 0  2.671196597248127e-13 1.1 0  -0.0499999999998666 1.1 0  0.2314218931487535 0.6731210698976562 0  0.2259157245334431 0.6480050300748232 0  0.2210395979583734 0.6226065589557217 0  0.2169695158067352 0.5974518084996533 0  0.2136121742741631 0.5727060216331076 0  0.2108764809405083 0.5483098596439505 0  0.208944805342415 0.5240907780068984 0  0.2084724898447677 0.4998847269215154 0  0.2089130807267797 0.4757034215018741 0  0.2104753601450414 0.451386610975183 0  0.2129510903576624 0.4269621863735371 0  0.2162171847603262 0.4023563684119327 0  0.2200601651773242 0.3773785001320687 0  0.2247466302676124 0.3519813882323197 0  0.2299965880898998 0.326749494413453 0  0.2624340680523413 0.2982589441847822 0  0.2886000320173946 0.2953417815801307 0  0.3152503001070677 0.2928483572915614 0  0.3419362612185434 0.2904856125955929 0  0.3685619649762074 0.2884714574797039 0  0.3950148688756539 0.2867102818287361 0  0.4212951091209883 0.285204822177017 0  0.4474776248844639 0.2839427747270156 0  0.4736353426830647 0.2832786062939683 0  0.4997258828044484 0.2830457046431286 0  0.5258119859835125 0.2833234386146929 0  0.5519399378106097 0.2840445402739692 0  0.5781666847347546 0.285099256629562 0  0.6044804926104959 0.286629578232901 0  0.631007858426011 0.2883035620340753 0  0.6576625961439515 0.2902385795538414 0  0.6843044462671488 0.2925155239358066 0  0.7108762066888177 0.2949695535494129 0  0.7369347329985623 0.2977757470286285 0  0.7690556945370203 0.326113905336675 0  0.7747041971592439 0.3511521430826612 0  0.7794955625819624 0.3765583894916114 0  0.7834495333931856 0.4016601896665448 0  0.7867145081320864 0.426356095191684 0  0.7892431233804329 0.4507690472698846 0  0.7907073166953241 0.4749771867596742 0  0.7910519867331182 0.499000162666744 0  0.7902684534594472 0.5229865422253228 0  0.7886672102023308 0.5470410614010949 0  0.7863964214761813 0.571430896999393 0  0.7831976232919666 0.5960665874509566 0  0.7796890509950636 0.6213787381451177 0  0.7750685992038127 0.6469116466995797 0  0.7696174643293362 0.6721338774592033 0  0.7374200284003196 0.7006072213987961 0  0.711345307338371 0.7033448321406984 0  0.6848781623042404 0.7059309813452255 0  0.6582446720722712 0.7083214359576949 0  0.6316258400391365 0.7104425996836529 0  0.6050727322233554 0.712223747286863 0  0.578774277375791 0.7137868424639344 0  0.552600918526577 0.7148586939434677 0  0.5265388857100479 0.7155359281648832 0  0.5005424171392572 0.7157564035148862 0  0.4745314178997831 0.7155727844245008 0  0.4484660274802656 0.714852411013618 0  0.4223565074402133 0.7136691546582721 0  0.3960550658694845 0.7122753528305762 0  0.3695638941663318 0.7105869116934921 0  0.3429973875871892 0.7085953713969612 0  0.3163559092131278 0.7063923299066738 0  0.2897737789784101 0.7039949861108888 0  0.2637049330871123 0.7012517756971867 0  0.3535324835560511 0.3131404417406488 0  0.2382583106686166 0.4385223342275621 0  0.3544976683777578 0.6859498417811151 0  0.2387512911421971 0.5611051193403856 0  0.7606197590065956 0.5842664487513729 0  0.6196483392539184 0.6886384032830833 0  0.6448631695494953 0.3124033045153474 0  0.7632175367599818 0.4371163789732259 0  0.76449463001711 0.5104982945262723 0  0.5650703850387681 0.306799663152624 0  0.4346580690778565 0.3088513871201235 0  0.4340409882169592 0.6904208350191473 0  0.5400091368259574 0.6917844510094209 0  0.2356671823902361 0.4875786331611178 0  0.241803410592952 0.3887056049193887 0  0.4867269292870828 0.309680768295751 0  0.249327093696494 0.6091452861060297 0  0.7509502587900544 0.385852988821449 0  0.4873256755681343 0.6921665726433179 0  0.6735482707901391 0.6840078634641382 0  0.298772652232868 0.3196210392427115 0  0.7011776189385424 0.3206766952521556 0  0.3008584602072128 0.6820315512037839 0  0.7511391652209267 0.6368089112231585 0  0.2515128947857526 0.3384887019874052 0  0.2555151506691298 0.6595457877974299 0  0.7271215129553397 0.6792055647100151 0  0.7486884334069701 0.3372741459464224 0  0.3276375941029075 0.6840551963941303 0  0.3395272702757268 0.6620381941643355 0  0.3663234560001608 0.6633656610803941 0  0.3508650488900041 0.6394282908663391 0  0.3789026863234621 0.6404199401627868 0  0.3623098511556177 0.6139449058745908 0  0.3958912793398273 0.6148379059229092 0  0.376100707041951 0.5833361607019601 0  0.329109330164568 0.6122491135566496 0  0.417016738221471 0.5835433662189441 0  0.3927906792818587 0.5476733867727213 0  0.3448316835737018 0.5533256925706695 0  0.3649911996272514 0.5138601971607631 0  0.3195412713900094 0.5161237834285959 0  0.3352392375824114 0.4811978301972184 0  0.3830445614458278 0.4758715031672976 0  0.3576967517034195 0.4429637870960419 0  0.4011686948975253 0.4376783306507477 0  0.3771550750646172 0.4064842534357943 0  0.416958599501377 0.394918428904731 0  0.3358938504167891 0.4077090134034344 0  0.3884144345261959 0.3735270542033354 0  0.4284221381184579 0.6168973712145805 0  0.4587216901574062 0.5913247773442261 0  0.4808906646006298 0.6173883137013668 0  0.5027930493727621 0.5928751131432248 0  0.5237825621038178 0.6175548399002567 0  0.5457928843503308 0.5933148540427937 0  0.5661858858783478 0.6182919286858892 0  0.5882758002681152 0.5943617951590991 0  0.6091376133137181 0.6220026811799167 0  0.6304698072646654 0.5887476988571279 0  0.6114557077345437
[...]
<PointData  Scalars="v"> 
<DataArray  type="Float64"  Name="v"  format="ascii">4.3009476248063501e-21  6.5401345616983643e-21  -1.1900354213117527e-21  3.2542968792564599e-21  -1.0300646840434181e-22  -1.1508116843896269e-22  2.4104139847372692e-23  -3.9225207805814240e-22  2.7783845207789148e-05  3.7897800778349354e-06  7.8981658147700393e-06  3.0494738407517026e-05  1.1115217633640701e-04  1.1892564443117077e-20  2.3840921758990914e-20  -1.0608921999937212e-20  -4.2468316795603036e-20  6.7098983448653880e-20  1.2745016802114505e-19  -5.1352505112496710e-20  2.5205776113487939e-19  2.5179644344884461e-19  -3.2368984729038979e-19  -1.0272633515710094e-20  1.6108730089209069e-19  4.9871773990201563e-20  -3.0221434543131099e-20  -2.5792146489386570e-20  1.3334571460348130e-20  -2.5455596293189406e-22  -2.6355771712877221e-20  1.9307964023857780e-20  -7.6266770386507923e-21  1.3134021012352454e-20  4.9931716354336082e-20  -6.1968884589355161e-21  4.3310949608377145e-21  6.5903520732137827e-20  7.5704978217484076e-20  3.7702631973932621e-20  -9.6322851117979526e-20  9.8855290361575270e-20  -7.6833351243846707e-20  -1.0260301559334962e-19  7.3696112836129112e-20  5.7049510456707304e-21  -3.2223715011279799e-21  1.0452854134638262e-19  -7.0489060502053448e-21  2.1334359885710666e-20  -3.5164843217414441e-21  1.5862180507811642e-20  1.5804320185300089e-20  -2.2937922355358819e-20  1.3044518957948975e-20  7.2826376008696228e-20  -3.9839650278118720e-20  9.6049218228264433e-21  2.8171137254851112e-19  -2.2193329920652129e-20  5.7410358275317026e-21  2.9934000060977819e-20  8.4162163247573881e-20  -1.0053268978308749e-21  -3.6268199653442215e-20  3.5959210138385017e-20  -4.3405360751494324e-21  1.9695336916593573e-21  4.4259027085601545e-20  3.4543058111783047e-21  -5.8780479763722922e-22  1.1120275780480739e-20  5.6714481589604508e-21  8.1410688253435134e-20  6.0441254884169336e-20  -2.4783089021333346e-20  2.4058915145399675e-20  1.1920308289922845e-19  4.8804297300324341e-20  3.8392638992363630e-20  4.1741029130597229e-20  -5.4404176760403415e-20  -2.3251783853480529e-20  -2.7386679196778025e-20  -3.0750294449729610e-20  -2.2937827345102546e-21  6.2699338137017728e-20  -2.3486381672395597e-20  -3.2892789060299904e-20  4.6581871389144488e-23  5.8545083698788444e-22  2.4908656199964033e-21  2.2671406912937985e-21  -3.3375825824589832e-21  -3.2327798062391820e-21  1.1459050479696592e-20  1.0891521198298573e-20  2.0149915129573796e-21  3.5317931892075513e-20  2.1635149535521042e-20  -2.7008287374631121e-20  -6.6800909734499788e-21  2.1292338959546016e-20  9.5796457664192003e-21  -6.9462025420866804e-21  -5.3923505631017976e-21  -3.3408528218019247e-22  -4.2564502824758683e-22  -2.2798765074079351e-21  1.2688216354169572e-21  1.4508948954492426e-21  -3.1487972249967022e-22  2.6858914789625800e-22  2.3804977975051710e-22  -8.5006081148086207e-22  2.6866262778679785e-21  5.3989654527736405e-21  5.3713514407237296e-23  1.6951844413357686e-21  7.0475002681060589e-21  1.2480123630960638e-20  6.7958151838305469e-22  -5.2726259671870943e-21  5.6542340108168697e-21  -6.9791492062375913e-21  -1.5800354010125542e-20  4.5512945820597637e-21  3.1800492788069893e-21  1.2561775031810136e-21  1.4430544248660316e-20  4.2960073724220468e-21  -2.3259166776276278e-21  6.1728480230797265e-22  -2.9283906179493663e-23  2.1076263726179585e-22  -1.1309166649855194e-22  5.6920084635517436e-22  2.4932607074371132e-21  1.1555250039824675e-21  -2.2221796431013330e-21  2.9585775181306831e-21  8.0351247845394627e-21  -6.6324525728618578e-21  6.5856107705624298e-21  2.8591832956409336e-20  7.4530804676832140e-21  -4.3276823660260679e-21  7.1162936694325913e-21  9.5770146053587287e-21  4.4992803829373240e-23  -3.9388472200906582e-21  4.9615965729722305e-21  -1.2876064521926683e-22  1.1276324164244033e-21  4.5988381245390584e-21  1.4646527233166164e-21  -5.5291692731250150e-22  6.3175875186642468e-23  2.6428115575776136e-23  -3.0279851631960523e-22  3.3846525045538026e-22  3.8378104153533099e-22  4.0852440697735245e-21  3.1478775522106649e-21  7.9182008327268088e-21  -2.2826882669130688e-21  5.4947305689067132e-21  1.0321440837054858e-20  5.3256925281796893e-21  7.1189361984926521e-21  3.3945659400008637e-21  -5.1708464300335869e-21  -4.7768160590370332e-21  -4.2308055005341650e-21  -6.6906589787583195e-21  4.5142395399379402e-21  9.5706438186988032e-21  -2.6895479106057187e-21  -4.3653340459031914e-21  2.5861630775428401e-22  5.5317092220690128e-22  2.3794334578870756e-05  2.8568189373052939e-05  3.3736369120781280e-05  4.0674857620050453e-05  4.7724171550457195e-05  5.0389988982245295e-05  5.0849688089480387e-05  5.2696301093412855e-05  4.6871002886911216e-05  4.2045653407108051e-05  3.4989729947578666e-05  2.6077235870179495e-05  1.6632475507025017e-05  8.2305134021817626e-06  3.5574098950279085e-06  1.0654176967964842e-05  2.2706216141515749e-05  3.5975599341734682e-05  5.0637252946718784e-05  6.6086177733895327e-05  7.9428943976478960e-05  8.9699887640516289e-05  9.5786773155134581e-05  1.0151666971164701e-04  1.0313197154314811e-04  1.0176451242268646e-04  9.7437179410165159e-05  8.9979177683692101e-05  8.0426655446016668e-05  6.7698268342348221e-05  5.2611496069048071e-05  3.8426028394453605e-05  2.6354020006237659e-05  1.3774407192363256e-05  9.4243451986221114e-06  1.3805453877878699e-05  2.2641133674532498e-05  3.2571238890048019e-05  4.1331549624319162e-05  4.8512112458379420e-05  5.4286079982209673e-05  5.8251648660020928e-05  5.8214418971539999e-05  5.6757753202626285e-05  5.2727430277303308e-05  4.6841741338009515e-05  3.8925544246580052e-05  3.3442652433100271e-05  2.8759581446478120e-05  3.9465807936303210e-05  5.4768534047045832e-05  6.8630226299693420e-05  8.5542109829551854e-05  1.0194935690791850e-04  1.1624263808318114e-04  1.2747179692090252e-04  1.3599395462252913e-04  1.4079825232228229e-04  1.4261090501957349e-04  1.4011827249437386e-04  1.3494227415802117e-04  1.2699573735981261e-04  1.1539340337821109e-04  1.0083430276648639e-04  8.4356729176559929e-05  6.7186336896761238e-05  5.2374091207810019e-05  3.9058298556505626e-05  5.6146150109263535e-05  4.0065510446383414e-05  8.8694074015203215e-05  5.0635240964215817e-05  5.1749363711445587e-05  1.0502212196743231e-04  5.9735976924252665e-05  4.5651088225524204e-05  5.7895366297882509e-05  9.2071811759397175e-05  9.1274616659261991e-05  1.2639846872403022e-04  1.3413383103220817e-04  4.9995747136708639e-05  2.4831693912385319e-05  1.0111166912705541e-04  4.5195595546147015e-05  3.1292883523822515e-05  1.3733890557780860e-04  7.4595896382788688e-05  2.6416613585498954e-05  3.0626581990118080e-05  5.3340264587994568e-05  3.9208314930114181e-05  -5.2524174104038756e-06  2.5338243030481946e-05  2.9923783498604315e-05  -9.2564671337907035e-07  7.2650637204768988e-05  7.9824698646917866e-05  9.5717928019050906e-05  8.6672513867019194e-05  1.0189257054234970e-04  9.2127690807787839e-05  1.0724168240377513e-04  9.5043527520256052e-05  7.3978982206822442e-05  1.0984677238765949e-04  9.7243007913828789e-05  8.1534933188197868e-05  8.4944020906618401e-05  7.1473167443935207e-05  7.2338479701488815e-05  8.5929793685602507e-05  7.3401625362027554e-05  8.6986984681077884e-05  7.5801252067412043e-05  8.8471342147840727e-05  6.0179591773503119e-05  7.7694929186534483e-05  1.1806429090200046e-04  1.2147848529882213e-04  1.2872575200489005e-04  1.2517185288435763e-04  1.2957259157475069e-04  1.2107465372289256e-04  1.2088456704802541e-04  1.1093376358912771e-04  1.0694188274324045e-04  9.5917735466088079e-05  9.9723849216658969e-05  8.6907673719401719e-05  9.0683674658410178e-05  8.0077463152058344e-05  7.4074955580127853e-05  1.1778021265299539e-04  1.3213431751080097e-04  6.8426338394342819e-05  6.3194196650987586e-05  9.3940424822053456e-05  9.8738435689299853e-05  1.0963032303228432e-04  8.5966735643834013e-05  1.3664958536061789e-04  1.3293951033187596e-04  1.0244031122089929e-04  1.0319700177567601e-04  1.0382787276386727e-04  1.0093272064818437e-04  1.0286207539064278e-04  9.6087879320467964e-05  9.2776407001852462e-05  8.4241696349681864e-05  9.0485649718999859e-05  7.7956190981250600e-05  7.0208535408539813e-05  6.3099207311046991e-05  7.0267219490249431e-05  5.2751697671937830e-05  4.7137277358131070e-05  4.1282718789752154e-05  4.6571393394092630e-05  1.0060104019785943e-04  6.5333786030621227e-05  6.8637523721193637e-05  6.4696921778516559e-05  6.9030668062747125e-05  5.8138315640978373e-05  6.2617116147674391e-05  7.5776888164128060e-05  1.0100865658083082e-04  1.0158125036172242e-04  6.2380842102573703e-05  9.7282683443537327e-05  5.9118677462079211e-05  4.7426055446323832e-05  4.3382715108677276e-05  6.1299456223619372e-05  5.3626518700737552e-05  3.5238767614108253e-05  3.5291018025334126e-05  4.5174450448175896e-05  5.8348084621808609e-05  6.2208030125642023e-05  5.5098782895089998e-05  7.1687693617983911e-05  1.0053807425248318e-04  3.8975783883634055e-05  9.7288253309578873e-05  7.7491122384928290e-05  6.8196791610700231e-05  7.3105473573341199e-05  6.5132388059931356e-05  6.1799921615359992e-05  5.6865162422065684e-05  5.6977510743895372e-05  6.5223745412210657e-05  7.0793487091917051e-05  5.5941250835488141e-05  9.1548839864155447e-05  3.7083269123055381e-05  3.2152310758600005e-05  8.9694915518209270e-05  9.1080017870596186e-05  6.1915496043505770e-05  7.6773605104226225e-05  8.6675719396019676e-05  6.7803257115849229e-05  6.1534298822268996e-05  6.1362152265684720e-05  5.3532228163828158e-05  3.6323409540357713e-05  2.5696070849778666e-05  4.1877422940861775e-05  5.7171034827998692e-05  4.6499192177039524e-05  1.3347816942204776e-04  6.4118556057158365e-05  5.2516824385307784e-05  1.3505241755690408e-05  1.1639644949603436e-04  1.2108326045443019e-04  1.1426169719265944e-04  4.9084913100282782e-05  1.0360665928226402e-04  8.4028352434259920e-05  4.5822837560209925e-05  8.2728157421892252e-05  9.7416791028891983e-05  7.0038249190484283e-05  3.5623181474522483e-05  5.0427392502498639e-05  1.3741450895767834e-04  3.8616069573363270e-05  4.7638283992429088e-05  1.1745897422243950e-04  1.1146602022464145e-04  1.2732382434004922e-04  9.0398484010059690e-05  5.0195330918414730e-05  5.4207193844527897e-05  4.1177406584963569e-05  1.0309338830843277e-04  6.7507199117098626e-05  7.2402343999027887e-05  5.0593375805821224e-05  -1.3060395278715264e-06  2.7255202203297941e-05  2.2385220411751720e-05  2.0752626708797828e-06  5.6788634556494765e-05  9.7471218322761890e-05  1.1474354909164705e-04  6.4446158624125146e-05  4.7624331167017837e-05  3.2166467798758223e-05  2.7923970609625648e-05  1.7630199282701563e-05  9.7906968204779473e-05  8.2296148022476234e-05  1.3610435373024045e-04  5.7746381426922347e-05  1.0095580643076065e-04  6.3379058633859423e-05  9.8092193148412312e-05  1.1008441331148921e-04  8.1852705912010800e-05  7.2523870997085921e-05  5.3708094857131185e-05  1.3551294739942146e-04  7.5893371706562651e-05  1.2959411188468573e-04  5.1081475450770179e-05  5.5279884089112781e-05  1.0978320212456951e-04  5.3541213046494564e-05  1.3103632411376505e-04  7.7809506457343918e-05  8.7037561030908891e-05  5.5893935058220612e-05  1.2554163186880696e-04  8.3208956573089003e-05  5.1179077522210953e-05  1.0466074509600814e-04  8.3415739402691445e-05  2.8344584241691926e-05  9.4637026818025592e-05  9.7203604484353277e-05  1.2290417811182036e-04  1.0277219123813454e-04  5.1600898498070894e-05  6.4137565155408325e-05  1.3768908580650568e-04  1.0784668401133361e-04  4.4982597673758220e-05  5.8655946309445491e-05  1.1613139796212508e-04  6.6430987033439112e-05  1.0083606529886020e-04  1.0775450975131684e-04  1.3534475146562554e-04  5.5023891871358489e-05  9.7590785735272100e-05  1.0367795331679969e-04  1.3430764757969187e-04  9.1261592367434326e-05  5.6909516193665144e-05  1.2645268905454198e-04  -1.4989707953635104e-05  -1.0730507738907537e-05  1.0694189840198982e-05  1.4098973958523665e-05  5.4524050070603664e-05  4.2025361415166253e-05  5.1939227234592205e-05  3.1076197438676674e-05  9.1402946250970432e-05  1.1702449924343306e-04  5.5456971918936532e-05  3.7990131086146414e-05  5.4082498558075013e-05  1.2789995695638618e-04  9.9630916482832584e-05  1.3305818608083761e-04  5.8545413163845302e-05  1.2929115948604844e-04  5.0505049126289474e-05  7.5153061649499637e-05  1.0530328567743297e-04  4.9606554597582437e-05  8.6698950535885343e-05  8.0037661289114023e-05  1.0277977600725008e-04  6.8255620595940498e-05  9.8056490108240624e-05  9.9629087880219843e-05  4.8313046240905063e-05  1.2993283549120609e-04  1.2851724475112638e-04  1.0293438539117335e-04  6.2043613638491856e-05  1.0270927284328054e-04  6.3187194650240143e-05  9.1181714326350424e-05  6.7346551587346289e-05  9.1551048327127813e-05  6.7741269769210552e-05  3.4429772882641051e-05  3.1485969649363950e-05  8.4510519476166397e-06  3.6002538754148409e-06  5.0663767642460236e-06  7.7023258780464936e-06  4.3234091592502734e-05  3.0842937848193583e-05  1.9476521883463783e-05  4.4126584558850588e-05  3.1857532314217367e-05  3.2610742772190699e-05  4.7784480817085604e-05  3.2657059818699774e-05  9.9697917793745975e-06  2.8946951468366169e-05  2.8811120344232981e-05  3.3128856750797245e-05  2.8764582832441327e-05  3.3538710681672728e-05  2.3938561482193199e-05  1.5718884450584508e-05  1.6170491066767981e-05  2.2005103368457928e-05  4.9504875324013398e-06  3.1529562381455114e-06  1.6582611656100925e-06  2.8327929931563708e-05  3.4989514183648479e-05  2.5371001590615401e-05  2.6372961807848041e-05  6.4616878312808854e-06  5.5288360040012452e-06  3.6989964279573284e-06  5.4562030515907459e-06  5.8430664965896692e-06  7.0685405033558456e-06  4.6898957405278853e-06  1.5622212090257361e-05  2.2371854142878652e-05  2.4010057850384743e-05  1.6635005386683245e-05  9.9299536459361816e-06  1.0459890870453632e-05  1.4025343257552619e-05  9.1325883294537174e-06  1.2110784031825190e-05  7.7956736872934737e-06  1.0546942980496307e-05  6.6835795587549050e-06  5.2482503066573545e-06  9.4003718134719904e-06  1.4164102794693287e-05  5.9284880962887536e-06  4.0101122912587180e-05  3.2640559450648289e-05  3.7084385082559779e-05  3.0200328253312229e-05  2.7032943321440507e-05  3.3993427099405550e-05  2.7262445788797899e-05  3.0507875927396097e-05  3.8068360467582590e-05  2.4216007188325889e-05  2.0024365124361776e-05  1.2044442296605106e-05  1.1500403601275227e-05  1.0089840601785168e-05  9.3138641744799430e-06  1.1694933431893286e-05  9.5273579519198787e-06  1.2473364567035256e-05  1.0202177583348447e-05  1.3762046864093384e-05  5.0444680468392937e-05  4.1211298755959129e-05  3.8581998031346344e-05  3.2811710284910825e-05  7.8006528166500161e-06  3.3168855615698794e-05  4.1876914304757193e-05  1.1121032319623852e-05  1.2534420423762065e-05  1.9470013087910718e-05  5.9446620366575957e-06  1.5028489514888669e-05  1.9781523289523386e-05  2.7621922312310108e-05  3.3187003525140594e-05  4.2315855779514206e-05  2.4627286768364822e-05  4.0559890686214903e-05  3.3995355842360334e-05  1.5251984151351938e-05  4.8124084546465735e-06  3.0173307836338774e-06  2.0189383384537367e-06  9.1166755540171104e-06  2.7198993269164793e-05  1.9268354049036137e-05  2.1601512396080618e-05  1.9781542970155199e-05  2.6787742292177299e-05  3.8958643906889954e-05  5.0058704501045494e-05  4.2623418024056351e-05  5.1903273168698146e-05  5.1694878595383990e-05  6.4694073958784627e-05  6.0974928737557803e-05  7.6276746489870636e-05  2.2136154099250886e-05  2.8416067105959526e-05  3.0035952311239770e-05  3.9175214265715458e-05  3.8433707347195990e-05  4.9159740965465784e-05  4.5854154471540660e-05  5.7732393989837055e-05  5.1871341589975529e-05  6.3993103577650602e-05  5.5564819163158596e-05  6.6781324030539782e-05  5.6136124489424573e-05  6.5638312479781983e-05  6.8979960331074907e-05  8.5969952132159482e-05  7.5568179466063001e-05  9.2971574097928147e-05  7.9876965654129080e-05  9.6249949262389796e-05  8.0588433723530650e-05  9.4956849475207519e-05  1.1861159702717536e-05  9.2216542501685291e-06  1.5963660865650808e-05  4.0457925255580441e-05  2.5676714585354559e-05  2.1671128500320525e-05  5.4049854313007913e-05  6.0742571497661033e-05  4.8571687335928428e-05  5.2920098943752180e-05  4.1437525093530868e-05  7.8614992444799210e-05  8.9554095984123756e-05  7.2705131497297767e-05  8.1070820123678775e-05  6.5217245239565386e-05  2.1463530763133623e-05  1.8996219548895525e-05  1.6771224020333821e-05  9.6130429499173385e-05  8.5073607028844159e-05  6.4147108906683037e-05  5.4593511466942811e-05  1.1009489504136381e-04  3.2572399861723396e-05  7.5794981684590442e-05  1.6485604137324255e-05  1.0210574992566848e-04  4.5065316768145944e-05  6.9614612379726045e-05  2.5478860728708755e-05  1.7765261662994576e-05  9.5810130151087020e-06  6.4110631410453674e-05  4.4428089532161763e-05  3.2213751291644922e-05  7.9975899163387877e-05  1.9435059701034951e-05  4.9699441213444428e-05  1.5973722952511341e-05  1.4559217071033553e-05  1.7732834326631046e-05  2.5153289793057973e-05  7.8520086944088119e-06  7.2985839188727719e-06  7.3455681622086826e-06  2.7754039770179407e-05  4.1365600323033108e-06  2.8686121108894604e-05  5.1227549423225709e-05  5.1677227018429791e-05  1.9746802165933061e-05  2.7208414991256099e-05  3.3972374021154657e-05  1.8579614563934003e-05  4.5929242198067564e-05  1.2216802078915873e-05  9.7671526650930271e-06  1.2662277857265416e-05  9.8848409496678245e-06  1.3399309611098352e-05  9.9916485762656831e-06  1.3803025577216287e-05  7.7913372202024749e-06  1.9385032542788802e-05  1.8693073781191811e-05  2.5877941303497103e-05  2.3551524347318229e-05  3.1089534299270727e-05  2.7465854288828157e-05  3.4859687244067670e-05  1.4578356634224514e-05  1.6601426226528717e-05  1.6512761445175698e-05  1.8010063500877464e-05  3.2027257749098523e-05  3.4638762196362871e-05  1.4065490311806881e-05  3.1078005505834229e-05  2.1581975814067580e-05  1.1237010792800799e-05  2.0297610314519652e-05  2.2371776381292699e-06  4.3083020207893915e-06  1.9935803259261822e-06  7.1305381834969821e-06  2.8775434532374463e-05  1.9203242616223653e-05  1.4981156605847537e-05  1.8506275223853662e-05  1.1743838823740232e-05  1.3355612941075428e-05  6.4589066973636145e-06  1.3776043192649739e-05  1.7714496660920365e-05  2.1821971981381706e-05  2.3006065189492008e-05  1.7693442756838955e-05  2.3018756657366397e-05  2.8354412758134665e-05  2.9299506721032035e-05  2.2288047575658237e-05  2.7000660996858698e-05  1.9840732229821749e-05  2.3848379360025065e-05  3.1042710082752917e-05  2.7037916814274800e-05  1.9896877595106734e-05  2.2037576410481262e-05  1.5519101715929524e-05  1.5803606268097544e-05  2.0151231955061787e-05  1.4484901430772173e-05  1.1078981775073139e-05  9.5826717229133026e-06  7.4633447348118252e-06  5.2745367311376433e-06  4.6138610497595120e-06  3.1663445803679240e-06  9.8863793846781285e-05  8.4608513128069698e-05  1.0854037105372921e-04  3.6067382264013783e-05  3.6558377041537570e-05  1.2850485475547055e-05  1.0856072983458524e-05  6.5066469429250385e-05  7.3789774626667587e-05  2.8216570725126663e-05  3.3162364733028880e-05  7.2304305323511934e-05  2.1319276091541194e-05  1.0991438811513005e-04  2.6785159727765267e-05  7.1821921301435167e-06  3.0029521827715219e-06  2.6454877979193039e-06  3.7686420864524212e-05  3.6040989872982702e-05  3.0624286805654770e-05  7.4341726227665229e-05  2.1991092056122216e-05  6.1607010847938336e-06  3.8533365948199754e-05  4.0875427479140150e-05  3.5089561787382600e-05  3.0248285747595364e-05  5.4562389158436525e-05  5.0178411400216187e-05  3.8714373528889050e-06  4.1069158309860293e-05  3.3768196222728041e-05  6.5793799488792564e-06  5.9948911865287823e-06  1.9601272763033698e-05  1.3621680997983968e-05  1.1413050418541316e-05  7.3466220589255549e-06  1.7808849427298725e-05  1.3250432035389206e-05  1.7902832711442856e-05  1.2869805714231776e-05  3.6568764176000378e-05  1.0280098260074839e-05  9.9201755424711603e-06  1.4443419324874725e-05  1.8386139208671334e-05  2.3563982565545997e-05  2