<?xml version="1.0"?>
<VTKFile type="UnstructuredGrid"  version="0.1"  >
<UnstructuredGrid>
<Piece  NumberOfPoints="1297" NumberOfCells="2496">
<Points>
<DataArray  type="Float64"  NumberOfComponents="3"  format="ascii">0 0 0  0 1 0  1 1 0  1 0 0  1.1 -0.1 0  -0.1 -0.1 0  1.1 1.1 0  -0.1 1.1 0  0.2369613304060882 0.7115403584836424 0  0.2370990817782741 0.2887003566990538 0  0.763137190175786 0.2883326415704416 0  0.7630881924115552 0.7114184012235009 0  0.499962489205882 0.4999373584271147 0  0 0.9499999999997918 0  0 0.8999999999995836 0  0 0.8499999999996529 0  0 0.7999999999999998 0  0 0.7500000000003466 0  0 0.7000000000006934 0  0 0.6500000000010401 0  0 0.6000000000013869 0  0 0.5500000000017335 0  0 0.5000000000020587 0  0 0.4500000000018723 0  0 0.4000000000016644 0  0 0.3500000000014564 0  0 0.3000000000012483 0  0 0.2500000000010403 0  0 0.2000000000008322 0  0 0.1500000000006241 0  0 0.100000000000416 0  0 0.05000000000020799 0  0.04999999999989965 0 0  0.09999999999981467 0 0  0.1499999999997036 0 0  0.1999999999995579 0 0  0.2499999999994121 0 0  0.2999999999992664 0 0  0.3499999999991206 0 0  0.3999999999989749 0 0  0.4499999999988292 0 0  0.4999999999986943 0 0  0.5499999999988151 0 0  0.5999999999989468 0 0  0.6499999999990784 0 0  0.69999999999921 0 0  0.7499999999993417 0 0  0.7999999999994734 0 0  0.8499999999996051 0 0  0.8999999999997368 0 0  0.9499999999998684 0 0  1 0.04999999999989965 0  1 0.09999999999981467 0  1 0.1499999999997036 0  1 0.1999999999995579 0  1 0.2499999999994121 0  1 0.2999999999992664 0  1 0.3499999999991206 0  1 0.3999999999989749 0  1 0.4499999999988292 0  1 0.4999999999986943 0  1 0.5499999999988151 0  1 0.5999999999989468 0  1 0.6499999999990784 0  1 0.69999999999921 0  1 0.7499999999993417 0  1 0.7999999999994734 0  1 0.8499999999996051 0  1 0.8999999999997368 0  1 0.9499999999998684 0  0.9499999999997918 1 0  0.8999999999995836 1 0  0.8499999999996529 1 0  0.7999999999999998 1 0  0.7500000000003466 1 0  0.7000000000006934 1 0  0.6500000000010401 1 0  0.6000000000013869 1 0  0.5500000000017335 1 0  0.5000000000020587 1 0  0.4500000000018723 1 0  0.4000000000016644 1 0  0.3500000000014564 1 0  0.3000000000012483 1 0  0.2500000000010403 1 0  0.2000000000008322 1 0  0.1500000000006241 1 0  0.100000000000416 1 0  0.05000000000020799 1 0  -0.1 1.05000000000004 0  -0.1 1.000000000000079 0  -0.1 0.9500000000001624 0  -0.1 0.9000000000003032 0  -0.1 0.850000000000444 0  -0.1 0.8000000000005848 0  -0.1 0.7500000000007256 0  -0.1 0.7000000000008665 0  -0.1 0.6500000000010508 0  -0.1 0.6000000000012352 0  -0.1 0.5500000000014196 0  -0.1 0.500000000001539 0  -0.1 0.4500000000014195 0  -0.1 0.4000000000013 0  -0.1 0.3500000000011588 0  -0.1 0.3000000000010178 0  -0.1 0.2500000000008986 0  -0.1 0.2000000000007579 0  -0.1 0.1500000000006174 0  -0.1 0.1000000000005272 0  -0.1 0.05000000000040083 0  -0.1 2.671196597248127e-13 0  -0.1 -0.0499999999998666 0  -0.0500000000000906 -0.1 0  -1.730560139634463e-13 -0.1 0  0.04999999999975802 -0.1 0  0.09999999999961506 -0.1 0  0.1499999999994613 -0.1 0  0.199999999999302 -0.1 0  0.2499999999991446 -0.1 0  0.2999999999990088 -0.1 0  0.3499999999988296 -0.1 0  0.3999999999986936 -0.1 0  0.4499999999985143 -0.1 0  0.4999999999984002 -0.1 0  0.5499999999985247 -0.1 0  0.5999999999986493 -0.1 0  0.6499999999987955 -0.1 0  0.6999999999989417 -0.1 0  0.7499999999990659 -0.1 0  0.7999999999992116 -0.1 0  0.8499999999993573 -0.1 0  0.8999999999994526 -0.1 0  0.949999999999584 -0.1 0  0.9999999999997226 -0.1 0  1.049999999999861 -0.1 0  1.1 -0.0500000000000906 0  1.1 -1.730560139634463e-13 0  1.1 0.04999999999975802 0  1.1 0.09999999999961506 0  1.1 0.1499999999994613 0  1.1 0.199999999999302 0  1.1 0.2499999999991446 0  1.1 0.2999999999990088 0  1.1 0.3499999999988296 0  1.1 0.3999999999986936 0  1.1 0.4499999999985143 0  1.1 0.4999999999984002 0  1.1 0.5499999999985247 0  1.1 0.5999999999986493 0  1.1 0.6499999999987955 0  1.1 0.6999999999989417 0  1.1 0.7499999999990659 0  1.1 0.7999999999992116 0  1.1 0.8499999999993573 0  1.1 0.8999999999994526 0  1.1 0.949999999999584 0  1.1 0.9999999999997226 0  1.1 1.049999999999861 0  1.05000000000004 1.1 0  1.000000000000079 1.1 0  0.9500000000001624 1.1 0  0.9000000000003032 1.1 0  0.850000000000444 1.1 0  0.8000000000005848 1.1 0  0.7500000000007256 1.1 0  0.7000000000008665 1.1 0  0.6500000000010508 1.1 0  0.6000000000012352 1.1 0  0.5500000000014196 1.1 0  0.500000000001539 1.1 0  0.4500000000014195 1.1 0  0.4000000000013 1.1 0  0.3500000000011588 1.1 0  0.3000000000010178 1.1 0  0.2500000000008986 1.1 0  0.2000000000007579 1.1 0  0.1500000000006174 1.1 0  0.1000000000005272 1.1 0  0.05000000000040083 1.1 0  2.671196597248127e-13 1.1 0  -0.0499999999998666 1.1 0  0.2341739340300788 0.6850067591991226 0  0.2323662732718405 0.6583735879794759 0  0.2309271504166261 0.631784467340747 0  0.2297378305348738 0.605307743488668 0  0.2287786968309779 0.5789231274190564 0  0.2280545029676755 0.5526030635686243 0  0.227540821759536 0.5263366069270394 0  0.2274431323910797 0.5000719281723022 0  0.2276345434043271 0.4738163967627941 0  0.2280934410700238 0.4475393182083113 0  0.2288203131601674 0.421232031377094 0  0.2298573622599624 0.3948946890059513 0  0.2311499182945534 0.3685033588008259 0  0.2325876049820786 0.3419324388761974 0  0.2343760878569019 0.3152881558843744 0  0.2634437066271617 0.2861661043550671 0  0.2899456229476025 0.2845456470460966 0  0.3164236815751904 0.2832287010909884 0  0.3428182988373342 0.2821080971960667 0  0.3691173251824268 0.2811338047921189 0  0.3953610140665175 0.2803369782144168 0  0.4215525275823876 0.2796780996307949 0  0.4477152407338797 0.2791211813667471 0  0.473874550251623 0.2788363997424302 0  0.5000138747896008 0.2787370264638642 0  0.5261555472452534 0.2788314318425169 0  0.5523137093699686 0.2791035851342362 0  0.5785005914782906 0.2795208280859198 0  0.6047109538335196 0.2801694371527844 0  0.6310109254580447 0.2808597397328255 0  0.6573533838228464 0.2817734044331429 0  0.6837500162931348 0.2828945877559878 0  0.7102239926694935 0.2842316365404275 0  0.7367463891688184 0.28583181481018 0  0.7658421779232623 0.3148738539300294 0  0.7676124037053456 0.3415450180495678 0  0.768993804494036 0.3681465614616968 0  0.7701387868105108 0.3946219793459659 0  0.7710494565851335 0.4210096920619122 0  0.7716950051597585 0.4473353505902594 0  0.7720543018877943 0.4736101531067614 0  0.7721015758931793 0.4998542961368602 0  0.7718081827315094 0.5260847765271623 0  0.7713599611242148 0.5523262100185277 0  0.7707194991893525 0.5786339890609027 0  0.7698337397583668 0.6050084088994274 0  0.7688206410286248 0.6315310241902723 0  0.7674969706732324 0.6581623504145304 0  0.7657666745331448 0.6848573302724594 0  0.736706053071032 0.7139465881063539 0  0.7101957614767465 0.7155637968835024 0  0.6837496024739214 0.7169398940455702 0  0.6573544632750037 0.7180817590174389 0  0.6310091443196183 0.7190064505915952 0  0.6046968744281636 0.7196849411676519 0  0.5784814604942119 0.7203100272157779 0  0.5523002065464329 0.720711144410273 0  0.5261500876739981 0.7209511001546731 0  0.5000194942290603 0.721033094488131 0  0.4738844919055369 0.720965873812204 0  0.4477352986821582 0.7206786890179276 0  0.4215711452872387 0.7201827152174312 0  0.3953461400179701 0.7196156194104605 0  0.3690619323981316 0.718893215019823 0  0.3427435094863571 0.7179560507175723 0  0.3163356618975628 0.716874586391407 0  0.2898448605835303 0.7155881784199325 0  0.2633306353322107 0.7139991956661443 0  0.3552265013807432 0.3056781644021241 0  0.2525900290877929 0.4339967706645103 0  0.3551504217095778 0.6943632218085671 0  0.252539884593118 0.5661735293560187 0  0.7479947820249944 0.5918639379110272 0  0.6183998468837233 0.6963744514803952 0  0.6437606404071584 0.3049272789372465 0  0.7489347743276591 0.4329193838039657 0  0.7484474063593368 0.5123498800028118 0  0.5649611394633866 0.30167521974881 0  0.4353596497021914 0.3037971365295485 0  0.4338254074971861 0.6965116968811723 0  0.5394017289018129 0.6974270802987766 0  0.2517574314725348 0.4868605754117249 0  0.252492750936715 0.3808576168809936 0  0.4870820417324797 0.3052960386274645 0  0.2587935841426079 0.6173193104633223 0  0.7413595390404305 0.3782783347700333 0  0.486880863597222 0.6975429297449436 0  0.6715188549598398 0.6938840559149475 0  0.3014350751624669 0.3099885973251413 0  0.6990916869430902 0.311139905319387 0  0.3022008827380091 0.6924716444999471 0  0.74354680881806 0.6474822278324145 0  0.2566020728083572 0.3277353968619577 0  0.259347122193766 0.6707401476153306 0  0.7246072667106569 0.6914348707274941 0  0.7445001081875073 0.3266597420190498 0  0.3286555715945103 0.6934586447167763 0  0.3415953200599878 0.670346182649641 0  0.3678193605630839 0.6708403759677174 0  0.3538091318778984 0.6466477925501612 0  0.3810625913375186 0.6469223658784268 0  0.366033115610514 0.6199266037178032 0  0.3984410765706081 0.6201856120743424 0  0.3803184819014543 0.5878354430588514 0  0.3341862071197472 0.618931089544304 0  0.4195982818040217 0.5875098815683459 0  0.3970321748420692 0.5504108645467619 0  0.3514450566219858 0.5567643032937234 0  0.3711315747820749 0.5150870654308719 0  0.3284924190665736 0.5175528705165368 0  0.3432624445639289 0.4805518430051281 0  0.3882514055996483 0.4751992616789794 0  0.3638850706466813 0.4404386158838497 0  0.4051436225939563 0.4354200832329355 0  0.3815812826585734 0.4026054604804613 0  0.419654451284937 0.3912750137832825 0  0.3422436498082609 0.4030438902576824 0  0.3915494616792666 0.3686936637494631 0  0.4299527659749073 0.6217905947270111 0  0.4597672816782075 0.595198998562397 0  0.48105062741124 0.6218720131719315 0  0.5024614199792931 0.5966828577408622 0  0.5228852377965999 0.6220856629835113 0  0.54412392802405 0.5973295890491706 0  0.5641941449249881 0.6232560187835571 0  0.5852024958941239 0.5989047119782659 0  0.6060163861522232 0.6278619164618749 0  0.625640771061149 0.5938159719004987 0  0.6068169310417351 0.5
[...]
<PointData  Scalars="v"> 
<DataArray  type="Float64"  Name="v"  format="ascii">4.3579235964637930e-21  6.7936719147873688e-21  -1.5469926258959853e-21  3.0599415682354616e-21  -9.2342209756093971e-23  -1.2009179798367995e-22  4.6428585278659265e-23  -3.9751242375670694e-22  -7.9993299346846205e-06  -5.4385391900399865e-06  -6.0898480615462908e-06  -4.2444411356327118e-06  3.8823130265401111e-05  1.2385607868613304e-20  2.1463203322862365e-20  -1.0752528930238337e-20  -3.7495067695350914e-20  6.7385258575336293e-20  1.2595438264855890e-19  -5.2195931448525660e-20  2.5148977652959308e-19  2.5251663357123366e-19  -3.2724912205959332e-19  -1.7687007359859121e-20  1.6475446599480429e-19  4.7163767000718141e-20  -2.8280650906600754e-20  -2.3969501861477254e-20  1.3618958457379408e-20  5.2180979438931111e-23  -2.6867279835019251e-20  1.9346103674678417e-20  -8.3637315873393506e-21  1.2523511135696804e-20  4.9097651552062319e-20  -7.9794895810318846e-21  5.9191200615199868e-21  6.7274752318356932e-20  7.5187374408821954e-20  3.7182488943814352e-20  -9.7861062848617878e-20  9.8522406290794794e-20  -7.6336167281817289e-20  -1.0443740919960517e-19  7.4947638168143259e-20  7.4503906334768176e-21  -1.7482618302623558e-22  1.0340741104973738e-19  -6.5446239613572634e-21  2.1573920164301526e-20  -3.3421379984254164e-21  1.6266869769682827e-20  1.6120957023978199e-20  -2.2747027052416681e-20  1.2658978666228686e-20  7.2679725776623717e-20  -3.8689766737185336e-20  5.6322095287559267e-21  2.7339001079670862e-19  -2.3092002074018148e-20  4.4110416263869656e-21  3.0726126814345007e-20  8.3692010073786396e-20  -1.2282753976022109e-21  -3.4839177325937485e-20  3.5089019811403529e-20  -3.8908480482404139e-21  2.0478341332612025e-21  4.3606083291023991e-20  3.6902870476127890e-21  0.0000000000000000e+00  1.0294109789658610e-20  4.4216083054907751e-21  8.6506544990740921e-20  6.2147308676194464e-20  -2.5712174288070659e-20  2.8016326867787834e-20  1.0869085873331376e-19  3.5432012137372887e-20  3.8784524067015531e-20  4.4460289964871175e-20  -5.5981856881371211e-20  -1.1929421081470661e-20  -2.4447248508940321e-20  -3.0316239324557872e-20  -8.0094123835386909e-22  6.2716470155598009e-20  -2.5204726732109468e-20  -3.2719544189735497e-20  3.6780561659014937e-23  6.6002473020717111e-22  2.4600015327210632e-21  2.1894753801687769e-21  -3.2926255812568125e-21  -2.6644581375124555e-21  1.1622022219762359e-20  1.0659643335845177e-20  1.8944354715357331e-21  3.5165874421336643e-20  2.1617940066885034e-20  -2.7653928403818622e-20  -7.3404191164292267e-21  2.1338363399839396e-20  9.5591128646896882e-21  -6.8411843611048094e-21  -5.0918753003658227e-21  -2.5363551044652748e-22  -4.1774325261485855e-22  -2.3209268557677731e-21  1.2542016190941423e-21  1.4656818436432010e-21  -3.1726959168563357e-22  2.7972017744371104e-22  2.2815529170516937e-22  -9.3671132573744030e-22  2.6082478048076928e-21  5.2065701252637652e-21  -2.2988606470898863e-23  1.9021159104103815e-21  7.2646001009857531e-21  1.2474256359817306e-20  5.3825990786836686e-22  -5.4234938948371973e-21  5.5395178113187817e-21  -7.1072170595706725e-21  -1.6002191818056870e-20  4.7340946667454141e-21  3.5103006575663021e-21  1.5327663064022003e-21  1.4514937854993007e-20  4.3224153815017390e-21  -2.2288600455486238e-21  6.3725629166001723e-22  -4.8469272198124228e-23  2.0561032734640907e-22  -1.2322586617574357e-22  5.5863038521386244e-22  2.5356429171689783e-21  1.2099843556833215e-21  -2.2089433586521963e-21  2.8982558833372426e-21  8.0632277303185919e-21  -6.5124317945960655e-21  5.9747350664664135e-21  2.7661086368137709e-20  7.1244970756018174e-21  -4.3683066420819581e-21  7.1364039135564153e-21  9.5362892209817393e-21  9.8740748946311600e-23  -4.0299918276239385e-21  4.8546951383790918e-21  -9.0017431892461640e-23  1.1439579374579325e-21  4.5070868290208032e-21  1.4238246505031807e-21  -5.6088829650140691e-22  4.5187720561771173e-23  5.4051647411232372e-24  -3.1336798363069149e-22  3.8126856958393709e-22  2.2211617035767037e-22  4.1239930952680788e-21  3.6943767308745879e-21  8.0465711994092033e-21  -2.1439476451528321e-21  5.7559144994609404e-21  8.7213167879169217e-21  3.4193327382890310e-21  7.0851788462032028e-21  3.6056952540021808e-21  -4.9308273222822804e-21  -3.5972903470532117e-21  -3.6256562307983190e-21  -6.7278337280742425e-21  4.7021369789785619e-21  9.6039346836803984e-21  -2.8905829078577412e-21  -4.3932065383645124e-21  3.1416426411491416e-22  5.5220605054779350e-22  8.0331220326171597e-06  2.9883027285283318e-05  5.7341788237954893e-05  8.7584870952917595e-05  1.1419277122699712e-04  1.3145163800944485e-04  1.4258689884098216e-04  1.4634236388688380e-04  1.4286853767015605e-04  1.3224105485987013e-04  1.1528221844877965e-04  9.0098730572159074e-05  5.9744551794647324e-05  3.4140600597094405e-05  1.0862043000031101e-05  -1.5428778151186826e-05  -2.0458955413572780e-05  -1.9728827301567060e-05  -2.0964053841944894e-05  -1.7967260924280801e-05  -1.5149014978877165e-05  -1.1824201410738437e-05  -9.9971642238018591e-06  -7.9734969169700096e-06  -7.4802817837409512e-06  -8.2027288238978569e-06  -9.9553190071126183e-06  -1.2919071317457099e-05  -1.6176306482324663e-05  -1.8890331985056155e-05  -2.2908092210707994e-05  -2.2514267570658377e-05  -2.1253275749371739e-05  -1.6332059819008344e-05  1.1176401370197149e-05  3.1813077540552479e-05  5.9770719738320082e-05  9.0746274647769481e-05  1.1742749867590950e-04  1.3493465427292476e-04  1.4666287818291147e-04  1.5124138563967138e-04  1.4771868805592465e-04  1.3694570012039200e-04  1.1825924460491767e-04  9.6453721136407133e-05  6.3014258577881942e-05  3.5580397952018460e-05  1.2524424983448688e-05  -1.4682398754199451e-05  -1.8666314229431707e-05  -2.0991409578159972e-05  -2.0044022521436830e-05  -1.7089170625905791e-05  -1.4352726854100136e-05  -1.0638573968536120e-05  -7.3225696641370805e-06  -5.5017126262179662e-06  -4.8759816906957697e-06  -6.0082495662717798e-06  -8.0735097779720314e-06  -1.0940989340479221e-05  -1.5178803329756892e-05  -1.8669798211734415e-05  -2.1396080960507453e-05  -2.2914036652233621e-05  -2.2835348138465695e-05  -1.7675676546686416e-05  -1.2661251118380149e-05  1.0164966551423200e-04  -1.2047289148693224e-05  1.0100071006497462e-04  8.5685946871020925e-05  -7.7309484989391524e-06  -1.0725910114257517e-05  1.0351797841075255e-04  1.2760708394216641e-04  -6.3773398159841219e-06  -5.4341017759579015e-06  -4.6263751158762758e-06  -2.7188504621677989e-06  1.2357383727870492e-04  5.8495813441480672e-05  -3.3747594073367728e-06  5.6771286557729391e-05  5.5345252582376035e-05  -2.1959826799023757e-06  -1.8556447923561089e-05  -1.6447314718198967e-05  -1.4106677930574632e-05  -2.4181477097284657e-05  2.9685105149190923e-05  -9.4611095076955409e-06  -7.5566085938138538e-06  -2.6602981015242165e-05  -1.0949362191416258e-05  -1.9452164228783983e-05  -7.8936010168089201e-07  1.2622750343803566e-08  1.2132897753877111e-05  1.1088228948748446e-05  2.6285100371020587e-05  2.2229844908034375e-05  3.8985906661597356e-05  3.1086668009051293e-05  3.1664827185590519e-05  4.7445767020580551e-05  6.1268728539499111e-05  6.3842145666905299e-05  8.4460776600541729e-05  7.6314983884510866e-05  5.5640954510092957e-05  5.6386869502828359e-05  4.1275621462254528e-05  3.4798628784465353e-05  2.3006193485066235e-05  4.6192047780340171e-05  1.6897931834605234e-05  1.8726154636566369e-05  2.4994161072676130e-05  1.7382558906959593e-05  2.3313404815044128e-05  1.7953962637617049e-05  2.5010225709306066e-05  1.8638841357309635e-05  2.9534168460211515e-05  2.0848797906795992e-05  4.0534158200032503e-05  4.8714760743998200e-05  6.3840610751551654e-05  6.5214386510341964e-05  5.2937901946361949e-05  8.0518473594328919e-05  8.9906061874893551e-06  7.9725078951491937e-06  8.4787449592566220e-05  1.0509455514452443e-04  1.1481209210542584e-05  1.7729020184251439e-05  6.3583590871970541e-07  4.6730226544264838e-06  8.7793015979761518e-06  7.8043000419095478e-06  8.2335175517131940e-06  1.7045034223992235e-05  7.1010904886059571e-06  1.5406748083068701e-05  2.6573709505547600e-05  2.4730224808171175e-05  1.6753852182234464e-05  2.6412668038780896e-05  4.2761443560780925e-05  4.7171295267653324e-05  2.9338260922895021e-05  4.9908430634188367e-05  6.5510276034543680e-05  2.7014191651089109e-05  5.1743626176299989e-05  2.8106604356522697e-05  1.0666555887036612e-05  4.9634992088834430e-05  6.9093724546724698e-05  3.6979870759597178e-05  9.4543478365324734e-05  1.0408077370659098e-04  4.8365432192556559e-05  2.5406822328724565e-05  1.4498020165573646e-05  7.3068144312722690e-06  9.0455982870965834e-07  1.1091820217132299e-04  2.9728769481481005e-06  7.6790752222990821e-05  6.3961105034553205e-05  3.5940548251732700e-05  9.5214258117705093e-05  1.0072010718123594e-04  5.1272140765670265e-05  2.6727170118402922e-05  1.4657047637123842e-05  1.0158902242240195e-04  8.0293733466078399e-05  1.1745328452118274e-04  6.3867158658575796e-05  3.6694768058711471e-05  7.7962399957593828e-05  4.2097544289395842e-05  8.5312726972615948e-05  1.1024450404561027e-04  9.0621520760316893e-05  1.0641526310417118e-04  1.2105829677339993e-04  1.1466413711644115e-04  9.5179075494495737e-05  2.2545804258942960e-05  8.4632054346802909e-06  1.1374652202331301e-04  5.7032910920811395e-05  1.3500494282711406e-05  3.1727405407742603e-05  2.4943026705473209e-05  9.4044614233756302e-06  1.2114306377919630e-05  1.1493685108466630e-05  3.5919848762113147e-06  -5.8594718326239616e-08  5.3079338146847116e-05  2.5360445342997879e-05  6.9362027339351409e-05  6.5621706051971355e-06  1.6716744851059162e-05  -1.3846676545656797e-05  1.1783510382502842e-04  1.1398549197417833e-04  -3.2185553633719884e-06  5.8298179365904941e-06  8.0432119533785127e-06  3.1219694655129521e-05  -6.5717498126114392e-06  1.3660706501864923e-06  1.0411790976054544e-05  5.9020437518357421e-05  -8.6924027061174651e-06  -6.5159187057350553e-06  -1.8291326404274741e-05  -5.6276593310697213e-06  -4.4524323490955761e-06  -8.3917854738224724e-06  2.8867156158352196e-05  3.7622334215507164e-05  -2.2165287814586700e-06  8.2006756650228923e-05  8.7284599766456700e-05  -6.0223647415484954e-06  5.4101842077071072e-07  -4.2737582296987459e-06  -1.3306969646746061e-05  -2.4321005176860418e-05  1.6292640900339543e-05  6.5468989250143272e-05  3.1322322592678916e-06  5.8672741549438147e-06  -9.0746095093306630e-06  2.2067088267537007e-07  -2.7617621208489563e-05  -3.0037424958517239e-05  -8.4052532316343075e-06  -2.8930591157304124e-05  1.0529146899245054e-04  3.1618574065721535e-05  3.3592715358739516e-05  1.1792603003163142e-04  8.2268604517023251e-05  8.1482664606997871e-05  4.1008564420869239e-05  2.8353585923929408e-05  -5.2801705375600311e-06  -5.1557112391309805e-08  3.4029060073115005e-06  7.2459379416615983e-05  -4.4205556040905376e-06  1.0605015424564962e-04  4.8257179797634425e-05  3.8801325478884936e-05  6.1312528867763492e-05  1.2932789726779825e-05  -1.1508997745549594e-06  2.5919377267491176e-06  -2.9991535592547443e-07  2.1777413199846902e-06  1.2450216773818128e-04  1.2717487257240582e-04  3.7876720411293284e-05  3.5724803266092041e-05  1.9754597735029928e-06  -6.0508238974804974e-07  1.2863652232531822e-05  7.0770041819387378e-05  9.1301497186068756e-06  7.2838795160392117e-05  1.1914764441754711e-04  3.5892996682018860e-05  4.5892329906010774e-05  9.4284944932861149e-06  7.3950529290360764e-06  3.4834697679079039e-07  1.1414765274522197e-06  2.6584873069811761e-05  1.1355876511874543e-04  -6.0516651256556380e-07  2.4565792974912517e-06  4.0459295957628589e-05  9.4501602686328776e-05  1.1332461490985116e-05  3.4285707559426029e-05  8.6210169702104450e-05  1.3001083801555514e-06  4.0989660767459503e-05  8.6926944059832652e-06  8.7941577117014799e-05  -1.1258012965276163e-06  1.0566444658512837e-05  1.2156991497410353e-05  5.4923524446368650e-07  1.2122589914551861e-04  9.3694026354566795e-06  -2.7907704708576269e-05  -3.0062711591683806e-05  -2.9102618346215109e-05  -2.7656709974411934e-05  4.8333075771295366e-05  9.6808133228688851e-07  1.0472187555225142e-04  6.2511568343154072e-05  -4.6931567950924433e-07  1.7410031732003748e-05  2.0840939825798399e-05  4.5033059572912935e-05  2.5665884588805623e-05  1.4386367465412376e-05  1.0781530942143921e-05  1.4445569755660008e-05  8.8308483963902640e-05  1.4986153411901892e-05  7.4721915822619785e-05  7.5621368694007805e-05  3.4200984802515589e-05  8.5553378991610270e-05  1.2625170925189526e-05  8.9016196892708873e-06  6.0493410418073202e-07  9.2088103482866661e-05  1.4384257248502541e-05  4.7204518899815820e-05  2.4049548757511508e-05  -1.0633457994777428e-05  -1.1740783747263452e-05  -1.8669129502331304e-05  -2.1534172484014130e-05  -1.7769496305680901e-05  -1.9381047044713932e-05  -1.3255243734782329e-05  -1.8303904981925906e-05  -1.3458902419991180e-05  -1.9452592641178038e-05  -2.0755782689673344e-05  -1.9416283198895048e-05  -1.1612055879565908e-06  -9.4998916051026956e-07  -1.6962217254113318e-06  -1.5588883920745184e-06  1.2505538953933663e-04  4.9177448706617130e-05  5.1913191551669602e-05  1.3089045710843144e-04  1.6620230166019101e-05  3.3990207233871223e-06  1.1779275245782820e-04  1.1387167000837520e-04  3.2684030516593105e-05  1.4363216590957891e-05  3.5153333169589762e-06  -5.0822681387144705e-06  -3.4996272362553415e-06  -1.0180573800925185e-05  -3.0837828139946732e-06  -3.1412959528002336e-06  -3.4198518599871970e-06  -3.5882617589253670e-06  2.3919895965317483e-06  3.6449190483375626e-06  2.7815307930614287e-06  -7.5334902790881727e-06  -1.3894179521951827e-05  1.2270999332174630e-05  2.4856632373046818e-05  2.3656978901267871e-05  1.0830578193899722e-05  1.1243034499423172e-05  2.2395955959961396e-05  2.7234681167625794e-05  2.6872201742856432e-05  1.9979665895900879e-05  -2.6358178460390516e-06  1.9777553236930152e-05  3.3897950241280272e-05  -4.0717171355768781e-06  -3.0527346090612660e-06  -3.5757752028985831e-06  -1.1263855478512926e-05  -4.4633282155883403e-06  -1.2499363111025711e-05  -7.5528994164544422e-06  -1.3706792636680186e-05  -8.8806096083199373e-06  -2.3702908183718004e-06  -1.3253847755952709e-05  -1.7324269270560793e-05  -8.2696836068640310e-06  -1.3673338387709515e-05  -6.8180515102005067e-06  -1.4820625423845200e-05  -9.4938595626660147e-06  -5.3840582777584858e-07  -1.5911600357857256e-05  -1.0572231471539754e-05  -1.5410352100237113e-05  -1.9723363588644592e-05  -1.0432384950431665e-05  7.3914786003763565e-05  1.4644222076327800e-05  1.5365248776620138e-06  1.2307727045025791e-05  1.7416606224587377e-06  -6.7137767578169153e-06  -5.1074914917111659e-06  -1.1680157681289422e-05  -8.7660259561236543e-06  -1.4327478626350188e-05  1.3912678672947063e-04  1.3314919910826893e-04  9.3301444044612312e-05  9.6085524942540201e-05  2.2584493680028708e-06  -1.7232563490793397e-05  -2.0765444869434194e-05  -1.0282099401799977e-05  -1.5079999648907623e-05  -1.9130313198718491e-05  1.7198026247914094e-06  -1.4359918894946522e-05  -1.9068761280616980e-05  -9.3924566335125396e-06  -1.3703311900521894e-05  -1.8197502407846180e-05  -1.3094490457166554e-06  8.0225951852129680e-05  -1.6056490501366425e-05  -1.4312063577591908e-05  3.3292677810006801e-07  1.0783788108052227e-06  5.2346034364729483e-07  -1.0332943874834161e-05  -1.3153540643053429e-05  2.5581376041965857e-05  4.1653841847467255e-05  -1.6626737546992162e-05  -2.0732546287486944e-05  -1.5823146904305128e-05  -1.9770034993673285e-05  -1.8652193651221828e-05  -2.2724598268997481e-05  -1.9600199057097989e-05  -2.3160649430924502e-05  -1.8773618030625742e-05  -2.0641370901701511e-05  -1.6872284925561813e-05  -2.0895191872228706e-05  -1.8073077748813072e-05  -2.1306050071813272e-05  -1.7543449517551167e-05  -2.0000449005474940e-05  -1.6315201850052913e-05  -1.8395272127846765e-05  -1.5009442349929155e-05  -1.6833627791007205e-05  -1.3901494327186145e-05  -1.5971544264373804e-05  -1.3606817422552536e-05  -1.6216493025798696e-05  -1.6742367983560727e-05  -1.7884754342047320e-05  -1.4646356654608922e-05  -1.5595855541351680e-05  -1.3050688407659232e-05  -1.4409811996683107e-05  -1.2421355831309442e-05  -1.4748629883569060e-05  -9.5513913464666740e-06  -5.7637073793383297e-06  -1.3930612300410990e-05  -1.3431564690178717e-05  -8.9352487718603216e-06  -5.1793153233585646e-06  -1.4159985347166169e-05  -1.7311069908560180e-05  -1.5302276981538789e-05  -1.9096716875835340e-05  -1.6339191833591578e-05  -1.3039407757520755e-05  -1.6328400510752639e-05  -1.4296759210249986e-05  -1.8338474684310809e-05  -1.5588002879860013e-05  -4.4004442220763701e-06  -5.1637793798304712e-06  1.5325768674706424e-06  -1.9024322250940609e-05  -2.1287319841687726e-05  -2.0025964412859718e-05  -2.2086571938383045e-05  -1.5178626050320164e-05  -1.2825778540798754e-05  -1.6862242177253683e-05  -1.1605225713011381e-05  -1.7450808118446337e-05  -1.0373661319561579e-05  -1.8628566395991305e-05  -1.6736298189979884e-05  -1.2432181692308794e-05  -4.9538989303316509e-06  -9.9670237730592823e-06  -1.5757459960036457e-05  -1.1102828857125068e-05  -2.3139150867068943e-05  -4.5399394047498661e-06  -2.2382483212890430e-05  2.8650165319840010e-05  1.6947734637743029e-05  4.1711907498116050e-05  6.0542791522353998e-05  -1.8766044109604736e-06  -5.2092182798448897e-07  -8.6420503958207340e-07  -2.2598124632200664e-05  4.4224700412833430e-07  4.1543576743618682e-05  -2.0987299845456086e-05  -1.3686051752188378e-05  5.5842414279103595e-05  7.7443520581963805e-05  -1.2869369337277650e-05  -1.7015778140933411e-05  -1.9444487511209575e-05  2.6506259489648146e-05  2.2150671769602408e-05  3.6523866832065209e-05  3.0014521208691774e-05  4.5881357151373251e-05  3.5378909901353677e-05  5.1614438924971284e-05  2.1698956668314572e-05  6.7158855420275734e-05  6.8887455268831362e-05  8.8342230995667475e-05  8.3563569209955225e-05  1.0295454320436295e-04  9.3079597903995921e-05  1.1110884804455883e-04  -3.7726930522590873e-07  -4.3495140978119609e-06  -1.6861903977171672e-06  -5.8792068971661179e-07  8.0810543687576494e-05  9.6925366234154478e-05  -1.1783521396055478e-06  9.9495868050675945e-05  -6.4443327824109999e-06  -7.2607296436163908e-06  7.2938701225990738e-05  2.8051443271540238e-07  2.5451758600134745e-08  1.9408197547588089e-07  8.2349126462616367e-06  1.2636272846922543e-05  6.2337957308339580e-06  1.0364959924548747e-05  2.0723608457463810e-05  -6.0349786664719661e-07  -2.6666478579527603e-06  1.4823427338967416e-06  2.0468697443213758e-05  3.4387389576661059e-05  3.4404213825465382e-05  5.2365120644845437e-05  4.7297783988975713e-05  6.6627948632281151e-05  7.4215711182513345e-05  8.9616159912290377e-05  7.4639720966091937e-05  9.3667717797251538e-05  7.4562821870693052e-05  9.1432760926286175e-05  1.0848790553662932e-04  1.0298773997332207e-04  8.2191008383019390e-05  9.0355410593321683e-05  6.8398870105349470e-05  6.9973171132690784e-05  8.3080238972049151e-05  6.4079660269031203e-05  5.1121688460964603e-05  4.4830879526347406e-05  3.4798274522205689e-05  2.4583659934900904e-05  2.0532959434079821e-05  1.1866119603707478e-05  -2.0099900685604667e-05  -2.2402083531574778e-05  -1.7665425035936539e-05  -2.3052212411496252e-05  -2.3967095384295530e-05  4.9568629141800462e-05  1.0522042441754558e-05  -2.1393157038223571e-05  -1.9218687702477278e-05  -2.2093843387746963e-05  1.0567048130927614e-04  -2.2505888515937022e-05  6.6768701319464140e-05  -1.7310192433372136e-05  8.6411758090955377e-05  3.1277981889101661e-05  1.0717737318885138e-05  4.5808089210473668e-06  1.1786554790234078e-04  -1.1817742965850987e-05  -1.1922965025099048e-05  -1.9068070195513238e-05  6.9746069890275051e-05  4.4577210837514953e-06  9.7237609931931666e-05  1.1230621101280672e-04  7.8092264438492164e-05  6.6091755282545573e-05  -1.0708745003255703e-05  -1.1589441230033139e-05  1.5250636833540952e-05  1.2400025585703627e-04  9.3358746401820582e-05  3.9424690601343190e-06  1.1200502013669929e-05  -1.1464646004640773e-05  -7.3441870597582924e-06  3.4560766056255520e-07  2.