<?xml version="1.0"?>
<VTKFile type="UnstructuredGrid"  version="0.1"  >
<UnstructuredGrid>
<Piece  NumberOfPoints="1297" NumberOfCells="2496">
<Points>
<DataArray  type="Float64"  NumberOfComponents="3"  format="ascii">0 0 0  0 1 0  1 1 0  1 0 0  1.1 -0.1 0  -0.1 -0.1 0  1.1 1.1 0  -0.1 1.1 0  0.2579753115993445 0.6808328247282804 0  0.2557146730834933 0.3206764251961631 0  0.7423225709699237 0.3201716206984317 0  0.7435411639715268 0.6782266987841117 0  0.4996662767911735 0.5001849637292467 0  0 0.9499999999997918 0  0 0.8999999999995836 0  0 0.8499999999996529 0  0 0.7999999999999998 0  0 0.7500000000003466 0  0 0.7000000000006934 0  0 0.6500000000010401 0  0 0.6000000000013869 0  0 0.5500000000017335 0  0 0.5000000000020587 0  0 0.4500000000018723 0  0 0.4000000000016644 0  0 0.3500000000014564 0  0 0.3000000000012483 0  0 0.2500000000010403 0  0 0.2000000000008322 0  0 0.1500000000006241 0  0 0.100000000000416 0  0 0.05000000000020799 0  0.04999999999989965 0 0  0.09999999999981467 0 0  0.1499999999997036 0 0  0.1999999999995579 0 0  0.2499999999994121 0 0  0.2999999999992664 0 0  0.3499999999991206 0 0  0.3999999999989749 0 0  0.4499999999988292 0 0  0.4999999999986943 0 0  0.5499999999988151 0 0  0.5999999999989468 0 0  0.6499999999990784 0 0  0.69999999999921 0 0  0.7499999999993417 0 0  0.7999999999994734 0 0  0.8499999999996051 0 0  0.8999999999997368 0 0  0.9499999999998684 0 0  1 0.04999999999989965 0  1 0.09999999999981467 0  1 0.1499999999997036 0  1 0.1999999999995579 0  1 0.2499999999994121 0  1 0.2999999999992664 0  1 0.3499999999991206 0  1 0.3999999999989749 0  1 0.4499999999988292 0  1 0.4999999999986943 0  1 0.5499999999988151 0  1 0.5999999999989468 0  1 0.6499999999990784 0  1 0.69999999999921 0  1 0.7499999999993417 0  1 0.7999999999994734 0  1 0.8499999999996051 0  1 0.8999999999997368 0  1 0.9499999999998684 0  0.9499999999997918 1 0  0.8999999999995836 1 0  0.8499999999996529 1 0  0.7999999999999998 1 0  0.7500000000003466 1 0  0.7000000000006934 1 0  0.6500000000010401 1 0  0.6000000000013869 1 0  0.5500000000017335 1 0  0.5000000000020587 1 0  0.4500000000018723 1 0  0.4000000000016644 1 0  0.3500000000014564 1 0  0.3000000000012483 1 0  0.2500000000010403 1 0  0.2000000000008322 1 0  0.1500000000006241 1 0  0.100000000000416 1 0  0.05000000000020799 1 0  -0.1 1.05000000000004 0  -0.1 1.000000000000079 0  -0.1 0.9500000000001624 0  -0.1 0.9000000000003032 0  -0.1 0.850000000000444 0  -0.1 0.8000000000005848 0  -0.1 0.7500000000007256 0  -0.1 0.7000000000008665 0  -0.1 0.6500000000010508 0  -0.1 0.6000000000012352 0  -0.1 0.5500000000014196 0  -0.1 0.500000000001539 0  -0.1 0.4500000000014195 0  -0.1 0.4000000000013 0  -0.1 0.3500000000011588 0  -0.1 0.3000000000010178 0  -0.1 0.2500000000008986 0  -0.1 0.2000000000007579 0  -0.1 0.1500000000006174 0  -0.1 0.1000000000005272 0  -0.1 0.05000000000040083 0  -0.1 2.671196597248127e-13 0  -0.1 -0.0499999999998666 0  -0.0500000000000906 -0.1 0  -1.730560139634463e-13 -0.1 0  0.04999999999975802 -0.1 0  0.09999999999961506 -0.1 0  0.1499999999994613 -0.1 0  0.199999999999302 -0.1 0  0.2499999999991446 -0.1 0  0.2999999999990088 -0.1 0  0.3499999999988296 -0.1 0  0.3999999999986936 -0.1 0  0.4499999999985143 -0.1 0  0.4999999999984002 -0.1 0  0.5499999999985247 -0.1 0  0.5999999999986493 -0.1 0  0.6499999999987955 -0.1 0  0.6999999999989417 -0.1 0  0.7499999999990659 -0.1 0  0.7999999999992116 -0.1 0  0.8499999999993573 -0.1 0  0.8999999999994526 -0.1 0  0.949999999999584 -0.1 0  0.9999999999997226 -0.1 0  1.049999999999861 -0.1 0  1.1 -0.0500000000000906 0  1.1 -1.730560139634463e-13 0  1.1 0.04999999999975802 0  1.1 0.09999999999961506 0  1.1 0.1499999999994613 0  1.1 0.199999999999302 0  1.1 0.2499999999991446 0  1.1 0.2999999999990088 0  1.1 0.3499999999988296 0  1.1 0.3999999999986936 0  1.1 0.4499999999985143 0  1.1 0.4999999999984002 0  1.1 0.5499999999985247 0  1.1 0.5999999999986493 0  1.1 0.6499999999987955 0  1.1 0.6999999999989417 0  1.1 0.7499999999990659 0  1.1 0.7999999999992116 0  1.1 0.8499999999993573 0  1.1 0.8999999999994526 0  1.1 0.949999999999584 0  1.1 0.9999999999997226 0  1.1 1.049999999999861 0  1.05000000000004 1.1 0  1.000000000000079 1.1 0  0.9500000000001624 1.1 0  0.9000000000003032 1.1 0  0.850000000000444 1.1 0  0.8000000000005848 1.1 0  0.7500000000007256 1.1 0  0.7000000000008665 1.1 0  0.6500000000010508 1.1 0  0.6000000000012352 1.1 0  0.5500000000014196 1.1 0  0.500000000001539 1.1 0  0.4500000000014195 1.1 0  0.4000000000013 1.1 0  0.3500000000011588 1.1 0  0.3000000000010178 1.1 0  0.2500000000008986 1.1 0  0.2000000000007579 1.1 0  0.1500000000006174 1.1 0  0.1000000000005272 1.1 0  0.05000000000040083 1.1 0  2.671196597248127e-13 1.1 0  -0.0499999999998666 1.1 0  0.2441581305787216 0.6624743801989502 0  0.2343599419620525 0.6395208960349806 0  0.2260592737053402 0.6156604020814392 0  0.2194325186184675 0.5919008550317235 0  0.2142977085018948 0.5687833119628948 0  0.2101611599225681 0.5461940944035004 0  0.2073432707419499 0.5236626483431026 0  0.2068713911953967 0.5012269411181971 0  0.2072908616633703 0.4788126846899777 0  0.20968582533676 0.4560417193285221 0  0.2134153992460083 0.4332133532916948 0  0.2184148994356543 0.4102165603335009 0  0.2244474085960731 0.3866421767088215 0  0.2323319212181681 0.3625314495144577 0  0.2419270233832219 0.3393882642106635 0  0.2760295324162649 0.309176836635285 0  0.3002774205743152 0.3009329219006762 0  0.3257627743191512 0.2937874823046195 0  0.3514072577667823 0.2875739179031589 0  0.376707314964326 0.2823026025860658 0  0.4015364120653272 0.2776058242335395 0  0.4260595160406398 0.2737461926759719 0  0.4504949734709739 0.270653415031184 0  0.4749478353957187 0.2689562864892824 0  0.499266060086062 0.2683902400785652 0  0.5235738330521728 0.269085686135196 0  0.5479276769809259 0.2709310978403233 0  0.572454757103448 0.2737040738344934 0  0.5970462839950018 0.2777016471186484 0  0.6220919745231808 0.2822342596370008 0  0.6474766274146592 0.2875011789180754 0  0.6729631400786714 0.2935708015339853 0  0.6981789569903237 0.3005552232075566 0  0.7221644406332657 0.3085803601452045 0  0.7555948214987802 0.3387469396595333 0  0.7656727279222525 0.3612625334979812 0  0.7739571227481677 0.3850755041675719 0  0.7804032847317488 0.4086653834813184 0  0.7856187729950204 0.4317101087599115 0  0.7893126451498116 0.4544816861553536 0  0.7914331373141972 0.4769141316100898 0  0.7918774043805547 0.4989782470937772 0  0.7909083726414198 0.5209831847547616 0  0.7886443567574603 0.5430955909034345 0  0.7852437111876737 0.5656815719269044 0  0.7804961972644311 0.5886211669640264 0  0.7745862707386755 0.6125979893244478 0  0.7666498432589092 0.6366255245471685 0  0.7569416535257019 0.6595204821425814 0  0.7233294057603256 0.690018004562071 0  0.6992439089784189 0.6980417571898309 0  0.6742720920087413 0.7053837586948932 0  0.6487952416595817 0.7120086634339546 0  0.6234043948315581 0.7177840383982727 0  0.5982280676032125 0.7226783539975087 0  0.5736083683809919 0.7268636408184994 0  0.5491517467062432 0.7297660592838975 0  0.524894666475021 0.7315959730470363 0  0.5007423651104949 0.7322137063944172 0  0.4765463120464712 0.7316988274836962 0  0.4522464560347871 0.729891241623152 0  0.4279344170916823 0.7269212859670021 0  0.4033153578482137 0.7231896549825924 0  0.3782629634782181 0.7186811363301056 0  0.3529945372902603 0.7133765751012991 0  0.3274521587903763 0.7072781776131635 0  0.3021120318292967 0.700246273961779 0  0.2781016289904071 0.6921299724625907 0  0.361847250995525 0.3101864635794458 0  0.2398027519665099 0.443352294838656 0  0.3634040331648534 0.6907919919369843 0  0.2405107706740284 0.5586083928315682 0  0.7571958144542763 0.5787105256132798 0  0.6123431501352704 0.6957461073953687 0  0.6357067217968811 0.3093431119298534 0  0.7609960266628844 0.4411406306127821 0  0.7634431550499151 0.5097139434762654 0  0.5603602694583287 0.2966461175790949 0  0.438370564985236 0.2988113829210127 0  0.4385498237942469 0.702193749031135 0  0.5374973611357955 0.7047941788709348 0  0.2358887186279758 0.4895214301248035 0  0.2464335545528751 0.3963545302051753 0  0.4870863181721353 0.2980233125743427 0  0.254615041101252 0.604073622403361 0  0.7447374795695528 0.3928004270973204 0  0.4883482755533077 0.7059180717296875 0  0.6636254227311493 0.6843816893293682 0  0.3095549507883233 0.3240162243648845 0  0.689357067006355 0.3251234270618548 0  0.3122806553852653 0.6797445490838484 0  0.742981091987983 0.6281701182765966 0  0.2620445482676323 0.3491637444823291 0  0.2666295466646262 0.6511217254009287 0  0.7143894036658023 0.6708496684528497 0  0.7367241938215223 0.3478939654503604 0  0.3378059925063894 0.6856092221620342 0  0.3483141574750502 0.6641583330596285 0  0.3739837984557134 0.6681484746570358 0  0.3583156515742766 0.6418310408654863 0  0.3852946389139781 0.6450562775050734 0  0.3683779050967922 0.6164724491452984 0  0.4008498685713425 0.6193133024489571 0  0.3808495648466947 0.5857489783045428 0  0.3358641374490454 0.6124389607882239 0  0.4204930308131442 0.5874827631724346 0  0.3964095431519107 0.5497357288922075 0  0.3492375811092468 0.5542302050399265 0  0.3686353622969366 0.5149257100746676 0  0.3231054633908074 0.5168767698981647 0  0.3388841097329289 0.4823162114038039 0  0.3864314258953578 0.4763757171383396 0  0.361819806458771 0.4435533557052896 0  0.4045134190054084 0.436853686111783 0  0.3817437453469839 0.4055775721553355 0  0.4203964648406421 0.3918170300191925 0  0.3412248060979363 0.4090567181938235 0  0.3934389158946924 0.3707651848087932 0  0.4320297374116136 0.6229075862994464 0  0.4605494922563174 0.5966271476747584 0  0.4818546954618546 0.6245791768755025 0  0.5025279994010631 0.5985646532166902 0  0.522460797051077 0.6246372913532073 0  0.5434837223680331 0.598506970175209 0  0.5627073451771646 0.6243036110259581 0  0.5841411085512026 0.5982813939519865 0  0.6036443816807627 0.6260739356032634 0  0.6250930892984864 0.5904537794588746 0  0.607141053
[...]
<PointData  Scalars="v"> 
<DataArray  type="Float64"  Name="v"  format="ascii">4.2965504550733017e-21  6.4784363956346130e-21  -8.6834879846014603e-22  3.2982016386224710e-21  -1.0624437467834380e-22  -1.1513676452921611e-22  5.1180297336032579e-24  -3.8657302235002940e-22  6.7054040428201868e-05  7.0722511698034860e-05  9.5144638016974074e-05  9.5152197839607286e-05  7.6058328490278187e-05  1.1872737664975094e-20  2.2927900589280727e-20  -1.1083922643027919e-20  -4.2915346416841833e-20  6.9909255518917929e-20  1.2864922729573065e-19  -5.0796748261059712e-20  2.5150074604604299e-19  2.5320159149830798e-19  -3.2097589830750736e-19  -6.5387309058630527e-21  1.6132226495016004e-19  4.9939802618944715e-20  -3.0916652614460234e-20  -2.5308823820621676e-20  1.3454621668520218e-20  -1.9900627351821332e-22  -2.6664023802769701e-20  1.9251133784272670e-20  -7.5234427767418819e-21  1.3945378046281954e-20  4.9890897765380792e-20  -6.1830504607765040e-21  4.4242250426000090e-21  6.4750772703961278e-20  8.1277097782923331e-20  4.1612993922314112e-20  -9.6302065719795620e-20  9.7562603701887332e-20  -7.9454210795417339e-20  -1.0499017261239344e-19  7.6514733719135973e-20  6.0690899572800270e-21  -3.1064688158586438e-21  1.0574023399599026e-19  -6.7113944278962888e-21  2.1541571598993016e-20  -3.3551205815950052e-21  1.5485548466199886e-20  1.5721113510237437e-20  -2.3209623465413084e-20  1.3748799284616654e-20  7.2937885669911097e-20  -3.9997369708204948e-20  8.9063394718369099e-21  2.8057827917183269e-19  -2.1459356475096451e-20  7.6731296759916095e-21  3.1135881201464596e-20  8.4719435504279798e-20  1.1367049063439765e-22  -3.5907236721682420e-20  3.6770775850188809e-20  -4.7800513277578478e-21  5.3176188739820489e-22  4.4565307211255627e-20  3.2045972128697976e-21  -1.1780176229223738e-21  1.0779102092270095e-20  5.9149967627509411e-21  8.1287235935630145e-20  6.1107106259997130e-20  -2.2779522334980069e-20  2.4642688461044189e-20  1.2436890101582486e-19  5.3314563186086499e-20  3.7538371178360528e-20  3.9452864712307523e-20  -5.5189610789049864e-20  -1.7174455194748481e-20  -2.7439570171326394e-20  -2.9505852043242472e-20  -1.0263628594852029e-21  6.3284581045078624e-20  -2.4188566569110334e-20  -3.2598615831740165e-20  4.1871317774181078e-23  5.9317037503850160e-22  2.4496713411558821e-21  2.2128354236619301e-21  -3.4753643100634691e-21  -3.0639529169528202e-21  1.1711077458695106e-20  1.1142069876738770e-20  2.0516263062365384e-21  3.5217394041462532e-20  2.1814222961444632e-20  -2.6782303352048135e-20  -6.2145655240117034e-21  2.1421864599922109e-20  9.5149905632800420e-21  -6.9729463024609467e-21  -5.3577106193592258e-21  -2.6857253665891472e-22  -4.1358385691875604e-22  -2.3175862067641145e-21  1.2537744880507636e-21  1.4528477234309170e-21  -3.1507699156943859e-22  2.7002086010570686e-22  2.2907023176946180e-22  -8.1271735212401936e-22  2.7680799551703668e-21  5.4204013777452941e-21  6.2982396073557890e-23  1.5558500463140246e-21  7.1638755093710304e-21  1.3153485167529151e-20  1.2649529652219777e-21  -5.2465110150304728e-21  5.5331446891244432e-21  -7.4013094116342477e-21  -1.5779157715191201e-20  4.8103083890391209e-21  3.3087030082268234e-21  1.2825531321890446e-21  1.4564832284559547e-20  4.3267128815957028e-21  -2.2779002313309881e-21  6.3454318550905810e-22  -2.2309590313828426e-23  2.0962427045276332e-22  -1.0562905554642767e-22  5.6182761562768223e-22  2.4580822036927467e-21  1.1246719339578070e-21  -2.2232154446226905e-21  3.0226012083505011e-21  8.0776019452644541e-21  -6.6755035041963274e-21  6.4624871877846751e-21  2.8415051095078851e-20  7.5810072720072594e-21  -4.0778363781730609e-21  7.2989562075981129e-21  9.6652390899222480e-21  1.4130352730070345e-22  -3.8157555411843526e-21  5.0443892717542334e-21  -1.9954836775920727e-22  9.7143825214886288e-22  4.5773243325404439e-21  1.4798938355736224e-21  -5.3738762680226214e-22  7.7197264360971035e-23  4.2474992978516634e-23  -2.8292830203611182e-22  2.7559841058499651e-22  3.4809965165949498e-22  4.0803015175759442e-21  3.2287601985300948e-21  8.0410452086572522e-21  -2.0891686201083768e-21  5.6778115084657780e-21  1.1046227031423428e-20  6.0613975200982596e-21  7.0197665500140808e-21  3.0041925258241940e-21  -5.0987754751245667e-21  -4.2295028626742842e-21  -4.1265908062195368e-21  -6.6014336057224374e-21  4.7310414935246059e-21  9.6123838304399731e-21  -2.7395037031895864e-21  -4.3665017137822857e-21  2.7169225112931929e-22  5.4396052463950127e-22  7.3785904482512093e-05  8.3554315341892443e-05  9.3462388960888516e-05  1.0070215943836611e-04  1.0659949131170538e-04  1.0812591321272193e-04  1.0892024547063875e-04  1.1171680700727696e-04  1.0905886087696967e-04  1.0809586739613146e-04  1.0572018869755065e-04  1.0265944553921284e-04  9.5045487364795150e-05  8.5975429304809925e-05  7.7383821220998580e-05  6.7145409370949338e-05  6.4885582396388859e-05  6.1430090124880445e-05  5.6354631781611899e-05  5.1693376811048463e-05  4.8202825357212063e-05  4.4588426662165695e-05  4.1979590786474353e-05  4.1082995997572080e-05  4.2415944472684719e-05  4.4033415678048599e-05  4.7196761156768108e-05  5.2056542413358414e-05  5.9248312421395137e-05  6.5817886536083311e-05  7.3230513373118188e-05  8.0311154144875314e-05  8.5895981443423795e-05  9.0015552014698964e-05  1.0335987172288726e-04  1.1421716560751889e-04  1.2471789963830856e-04  1.3334216865495125e-04  1.3675180641631204e-04  1.4115376036117868e-04  1.4345356153620353e-04  1.4526460286279531e-04  1.4446720656804675e-04  1.4219091187116472e-04  1.4011447948320297e-04  1.3355907244859167e-04  1.2736822443537536e-04  1.1551901023609988e-04  1.0384305052147500e-04  8.9143492270679213e-05  8.4362347623661061e-05  7.8088418015109996e-05  7.0008414670005511e-05  6.1544544547108407e-05  5.4111847787784911e-05  4.6357742904836664e-05  4.1877183760176081e-05  3.7442845635420220e-05  3.4893589375479037e-05  3.3938961460256827e-05  3.4303722342119076e-05  3.6709448463311555e-05  4.0429366530111331e-05  4.4303337609480180e-05  4.9439383183314897e-05  5.4754899374531837e-05  5.8988810781061855e-05  6.2604498739803727e-05  5.9555982809549362e-05  1.0416339644603133e-04  5.3112188940404015e-05  1.0306843012008905e-04  1.3207951321187814e-04  6.5015496037222745e-05  7.6768915612258532e-05  1.3681767782111791e-04  1.4253399922761862e-04  5.4916920790380142e-05  4.8693888584448165e-05  4.1424040617498306e-05  4.4064286177641396e-05  1.0846876800059811e-04  9.3923537140883843e-05  4.7698934448015558e-05  9.2132991417299403e-05  1.2349617669805756e-04  3.7035632818897903e-05  8.1649982939633743e-05  6.9714945448864506e-05  9.3573688036558168e-05  6.3796110266624279e-05  1.1621351752757698e-04  7.9778986292447230e-05  7.8196344741406315e-05  9.6467723935715516e-05  1.0803788941697607e-04  5.8134885037756003e-05  6.1287146889555679e-05  5.6318839576370562e-05  6.5138693925892997e-05  5.9729475579789170e-05  6.8935008753568132e-05  6.3024638976695731e-05  7.2162828377094043e-05  7.5421214967156877e-05  6.6393907759574851e-05  7.4832246704831034e-05  8.3685264562458661e-05  8.3156402550584759e-05  9.3708358995427222e-05  9.0398845252298720e-05  7.9952212313807658e-05  8.2636417070883539e-05  7.4330920763927995e-05  7.4014386980493412e-05  6.5898767014222154e-05  8.2069125992294725e-05  6.5773269484399282e-05  5.7810897453784435e-05  6.1630458339498168e-05  5.6810418597349044e-05  6.2731412372854376e-05  6.0536373478804657e-05  6.9288552377972631e-05  6.8302545966156613e-05  8.0044322642832205e-05  7.9855906441105701e-05  9.4933074678027428e-05  9.4793166919884895e-05  1.1049440653891584e-04  1.0663822062979477e-04  1.0976967990191606e-04  1.2369413503704208e-04  6.7534600710583782e-05  4.8184591369387648e-05  9.5261058496763634e-05  1.0271988771067941e-04  5.8485264170360710e-05  6.1850820645116748e-05  5.1568368444003041e-05  5.7562641913356985e-05  4.9444939039606737e-05  5.4463005695528647e-05  5.4592053342457433e-05  6.3084185739972008e-05  5.5804145632048877e-05  6.5502430865956856e-05  7.1912119431384038e-05  7.6457049399707703e-05  7.4449415150925035e-05  8.5797790821362597e-05  9.1222146912780296e-05  1.0229914527738605e-04  9.6324435874302426e-05  1.1011618215493718e-04  1.1496919637009361e-04  1.0331662553440910e-04  1.1690359902300954e-04  1.0994864354050319e-04  9.7631473016754523e-05  9.2140958165047937e-05  1.2327404009773344e-04  1.0779147048703307e-04  1.3351318255970643e-04  1.3420945759667164e-04  1.1832068126581457e-04  1.0633531844073684e-04  9.5079469932146421e-05  6.0596233981461085e-05  5.4467860050031815e-05  1.3875988469157230e-04  5.2940288739523269e-05  9.3552936583709596e-05  9.1544786484510347e-05  8.2321035584911089e-05  9.8752256601571987e-05  1.0316295895842669e-04  9.0452335392160287e-05  8.2498297878382884e-05  7.5107122657453080e-05  1.0312217692241595e-04  9.6261043848398537e-05  1.0723938663802473e-04  8.7610460763480995e-05  8.0755584654434995e-05  9.7813682153814941e-05  7.3636384738354210e-05  1.2246110652074362e-04  1.3561070001871334e-04  1.2614414422328267e-04  1.3583610840229622e-04  1.4105318559886498e-04  1.3958055283751612e-04  1.3272453806349163e-04  7.1486198677607555e-05  6.4604764826619890e-05  1.0664744102795832e-04  1.0011064851476828e-04  1.0273636243081446e-04  1.1349675564572182e-04  9.3023981833434806e-05  8.4525236419802160e-05  9.1146690971185431e-05  8.2194391505124197e-05  7.0133712905702910e-05  7.9782941205677201e-05  8.6829264629071658e-05  7.8447518397608019e-05  9.4408640182880226e-05  7.3125378743667941e-05  8.0014230687620465e-05  6.4189713659151433e-05  1.0749997779976334e-04  1.0706491748902727e-04  3.6669305637239737e-05  6.9069897193471710e-05  7.3386056062399926e-05  8.7929727611369936e-05  4.4425731197972100e-05  4.7766705014960118e-05  5.4782333015407024e-05  1.2422105830047446e-04  4.8451847886974438e-05  6.3411792394624017e-05  8.4078254762314276e-05  5.2073242334306154e-05  4.4297414122974424e-05  5.5126470522529048e-05  8.5417420285391476e-05  8.4995066293951592e-05  3.9078991653933469e-05  1.3114437956395156e-04  1.3224502700002035e-04  5.7377824850262661e-05  6.6575267533022759e-05  4.9929759076272056e-05  7.2956941588540045e-05  8.6362650582113082e-05  1.0462387071486103e-04  1.2537382123977111e-04  5.2637267225351369e-05  9.3813146264317841e-05  6.9639452731498953e-05  6.6561389520331397e-05  6.9252745116885368e-05  6.4642471824253681e-05  1.0381562008185002e-04  9.2123298926278924e-05  1.3770071278437372e-04  6.9361063677119610e-05  7.2995186662799016e-05  1.4049460660191568e-04  9.8500821187262526e-05  9.9358358615996755e-05  8.8752452612886250e-05  1.1610144472673705e-04  4.7989012153370809e-05  8.3564936145137851e-05  4.8110811228463763e-05  1.2213604724152247e-04  4.4617499007965703e-05  1.0315386066161029e-04  7.5793075258900956e-05  7.0753660605912236e-05  1.0743516212644591e-04  7.0039925916364303e-05  8.7003133295889036e-05  4.3843629232676672e-05  5.7973323855788028e-05  4.5118150062544358e-05  1.0819975802062064e-04  1.4226476859002690e-04  8.1203515668207098e-05  1.1388554615034457e-04  5.2388544642646698e-05  7.2912774855209912e-05  7.6253971615497886e-05  1.2656915165271384e-04  5.0325479317883334e-05  1.1362568399110464e-04  1.4042094954165943e-04  7.2427550654544819e-05  7.8838742023342001e-05  1.0597346339826039e-04  6.6635558768867142e-05  5.8489976560637269e-05  5.8713726767109572e-05  6.7911969102198725e-05  1.0606160698976112e-04  6.1937288808398380e-05  4.4428394030775133e-05  8.0835470903145248e-05  1.0176885703937449e-04  6.9970597835583104e-05  6.9704152510001409e-05  1.2548323130758712e-04  5.1067259627218939e-05  7.3714553113546005e-05  4.8003905706798237e-05  9.9634046918268927e-05  7.4353872489488126e-05  7.7991606382174392e-05  5.4397803971817554e-05  5.3142411911752774e-05  1.4120809444947933e-04  6.0776506823970279e-05  6.0702249275600157e-05  9.0802911286390778e-05  5.8649765493956580e-05  8.6777956838551384e-05  8.8453581179505578e-05  9.3646594658227056e-05  1.3728090770065158e-04  9.4701216036544692e-05  6.3049916085831771e-05  7.1827609282131206e-05  7.7697957015035292e-05  1.1829302116662118e-04  7.6691208260552888e-05  5.9961879110073167e-05  5.7210512054289550e-05  5.4145199030672156e-05  1.3215963775855494e-04  5.3248386774736366e-05  1.2615102327904278e-04  1.1808713588384112e-04  7.4562106067740049e-05  9.8957433570286019e-05  6.1441775202604525e-05  6.2202460662676907e-05  5.1799827841026209e-05  9.7765121045457142e-05  6.8654590221002698e-05  9.0386091075029515e-05  8.0601180445463906e-05  3.9526932928173374e-05  3.4775140214891420e-05  4.0371976147508992e-05  5.3109905872351438e-05  5.5614665827300968e-05  7.5420545755314387e-05  4.1884072919479483e-05  4.8407570666227725e-05  4.5891553142332128e-05  6.0428034674653649e-05  7.7917620480843280e-05  5.9509388700281640e-05  1.4109990482329166e-05  9.6143227753312176e-06  1.5718434441952513e-05  9.5587459403580500e-06  1.0158128331272913e-04  8.5036746422866607e-05  1.1507901701972126e-04  1.3358544144129240e-04  9.9862854575852940e-05  9.2445737140071165e-05  1.3252988422901666e-04  9.9965586516553406e-05  8.1614838113338125e-05  9.4271970626968739e-05  8.6599498811244644e-05  8.4079068622927455e-05  7.8296698434890744e-05  7.5678770946006825e-05  8.8135832651647330e-06  8.4164047892398932e-06  9.9992478903999594e-06  6.7163155660319936e-06  1.3901633652387232e-05  1.8888715599779475e-05  1.4356435650696796e-05  6.9068222587231236e-05  6.6865284686662161e-05  8.6159951566717538e-05  9.3623535664676374e-05  1.8387792002240123e-05  1.7678620938773082e-05  2.2584217494680072e-05  2.1160823266162121e-05  1.7501284631255869e-05  2.1265148968121293e-05  2.1145249197009485e-05  1.0929928417889458e-05  8.1386982325337917e-05  8.8770678734923414e-05  8.9337531812266925e-06  1.1678803334453885e-05  1.0431852050759777e-05  6.5442914379661737e-05  6.7381603251799192e-05  6.1713601865756246e-05  6.1818881203739803e-05  5.6599766333906703e-05  5.5808634342662794e-05  6.1294002441876738e-05  5.0474325011627615e-05  5.0745596581530842e-05  4.8644210967731075e-05  6.0833230899446995e-05  6.3191446257571435e-05  5.7317016852047231e-05  5.8078489830063773e-05  6.2837109131988814e-05  5.2554159286674391e-05  5.2474235661612375e-05  4.6942816456622896e-05  4.6470347784383412e-05  4.5618848237206524e-05  9.3282781960845243e-05  9.9558782066627480e-05  9.2683954676884970e-05  9.4063457808577462e-05  8.6874272751078798e-05  8.4759141982779882e-05  7.9023693479846809e-05  7.6701822279976093e-05  7.0615679234971315e-05  6.7588252022063243e-05  1.3627459970136314e-04  1.0262159326117394e-04  9.6355584818033743e-05  1.2731192043462813e-04  7.9362901931574799e-05  4.0951074459132980e-05  3.9815305343309974e-05  6.1210360174822413e-05  4.4742931764602187e-05  4.4851562315687992e-05  1.6774261101246322e-05  5.7250621544025445e-05  6.4044972727287402e-05  5.9062613052666687e-05  5.5237523305581959e-05  5.9950068537444858e-05  7.0773412015647696e-05  1.2437371125116641e-04  3.4303068308669756e-05  3.7777779192617364e-05  9.2876314387877903e-06  1.1970195487562118e-05  9.4440476496077953e-06  3.8141952198739900e-05  3.5584079013785474e-05  7.2536609969041745e-05  7.9467229564124210e-05  5.1507372645655659e-05  5.5559133214518444e-05  4.9214598545494791e-05  5.2327762427078566e-05  3.2524171284117100e-05  3.6823343192523163e-05  2.9512293246054302e-05  3.3869963331834371e-05  2.6267743419075761e-05  2.9158938630956601e-05  3.6268071437438890e-05  4.1250077520757974e-05  3.3822278778043960e-05  3.8028930248189612e-05  3.1143413295186801e-05  3.4692336376796987e-05  2.8462134873459707e-05  3.1702770035671046e-05  2.6315667118542890e-05  2.9895802874860919e-05  2.5596650518985572e-05  2.9925052021726484e-05  2.6057040401892360e-05  3.1739407525161683e-05  2.3510593692504785e-05  2.6263927218547570e-05  2.1681334896945063e-05  2.4623724053547714e-05  2.0964264223191291e-05  2.4497010432774415e-05  2.1474842066421642e-05  2.6107223100574825e-05  5.0212893347512189e-05  5.2467381800381760e-05  8.1446482839575145e-05  7.9400602673696557e-05  4.8175264574173827e-05  5.0084871552463822e-05  2.8374549407022840e-05  3.5390013838032613e-05  3.1509593848535782e-05  3.9734181451713588e-05  3.5114160009829798e-05  2.3682803488743795e-05  2.9663103624792473e-05  2.7003936553643285e-05  3.4523273924550206e-05  3.1141016400575084e-05  5.0410169938321485e-05  4.2030783546345986e-05  4.5412971742635677e-05  3.7020595017546886e-05  4.3178045195723865e-05  4.2925677949613365e-05  4.8304692096896886e-05  2.8591951516945095e-05  2.6842998383379365e-05  3.4653529539612987e-05  2.9596781418402220e-05  2.8548057827670748e-05  2.1189943479456558e-05  3.4646509936421234e-05  4.3216365695863952e-05  3.9307190701251335e-05  4.1432633857912825e-05  1.7328408920671146e-05  4.1817946399483171e-05  3.6917379970602724e-05  3.5171466839066190e-05  3.9166643931733494e-05  4.0997999747859755e-05  5.9805263981979994e-05  5.4418241535053683e-05  6.2761689543554733e-05  8.6998559838753206e-05  4.1284190682198899e-05  5.1482591877170328e-05  2.9420042037463459e-05  6.5340441073538500e-05  7.9370823469766585e-06  1.0156085284622312e-04  6.2860743942975004e-05  1.9735542790260414e-05  6.6156295960816654e-05  8.8331910676041486e-05  2.3841387168505451e-05  5.9974291886870358e-05  5.4822147073706490e-05  1.0089806030166268e-04  9.2820650597815634e-05  9.8902396964368057e-05  8.7542904742938022e-05  9.2959825305334506e-05  7.7723756409747935e-05  8.1760459136765638e-05  7.5883753429437781e-05  1.0099733615705087e-04  8.5778806524269886e-05  1.0432084475724613e-04  8.8633336572497632e-05  1.0717576529428110e-04  9.1134017676395705e-05  1.1003359687317836e-04  3.5788928685900896e-05  3.3489783500703129e-05  3.9378201922632621e-05  4.9188291114238358e-05  1.0399567651788466e-04  1.0710358251868714e-04  2.9034354055092424e-05  9.6711303957427116e-05  3.5931272438076058e-05  3.8483044204314733e-05  7.0566062148814457e-05  7.6047778561611096e-06  7.0257647239026142e-06  6.7387750395558674e-06  7.1991186860415320e-05  7.1786919405496580e-05  5.5681099202209880e-05  4.7267992966204744e-05  5.9939766458932417e-05  2.5988852452939864e-05  2.4672327560112312e-05  3.7889173757070014e-05  4.6440579395054804e-05  5.8318447454768949e-05  6.8724301747903616e-05  7.0902267099360160e-05  5.5359673562999602e-05  6.7717048309359201e-05  8.0206091207440564e-05  8.0007674230691333e-05  6.3496502603837987e-05  7.4523064852622626e-05  5.6813492600869552e-05  6.8994201642013630e-05  8.4192247294956224e-05  8.0348309019969766e-05  6.3078144535433489e-05  7.5999346259445922e-05  5.7021285604661776e-05  6.8000415892082477e-05  8.1703270034256322e-05  7.5076574554802617e-05  6.1618725482611260e-05  7.0034505747586443e-05  5.4977594233056376e-05  6.2082290196732021e-05  4.7206743749401769e-05  5.1861982072979197e-05  4.6081005359376816e-05  5.2636806840165177e-05  3.9541830170570172e-05  5.6163942446902411e-05  6.5186590691702158e-05  6.5226420402661714e-05  3.5244175654252567e-05  5.1557101381194070e-05  4.5639338299119154e-05  7.2389276850876955e-05  1.1868832234040252e-04  4.9162845664017357e-05  6.7759522437496896e-05  4.5059520742700876e-05  1.1431862957204817e-04  7.2426225252219764e-05  3.7046322902954433e-05  4.2607541567469459e-05  1.2065499752819655e-04  2.6195050180947433e-05  2.9120266019498824e-05  5.0805174758504616e-05  1.1145870969848099e-04  4.6744764043340116e-05  1.1748518556173074e-04  1.2033371550351312e-04  1.1315563210827662e-04  1.0275572856183597e-04  2.3166243358019264e-05  2.7010803758537920e-05  3.2160825169931303e-05  1.2270563658065784e-04  8.8794119072981134e-05  6.0328164753812171e-05  5.3777856347519341e-05  3.3131128623387316e-05  2.6550993145346552e-05  2.6660145492961414e-05  6.2213349482011197e-05  2.9092572035567120e-05  2.0988992434634089e-05  2.3862585380014383e-05  4.3614914472050743e-05  1.1036673650445087e-04  3.8200938081211126e-05  3.5513774294033746e-05  4.9725740005351276e-05  8.5225678421293574e-05  9.0534794148797610e-05  8.83874