<?xml version="1.0"?>
<VTKFile type="UnstructuredGrid"  version="0.1"  >
<UnstructuredGrid>
<Piece  NumberOfPoints="1297" NumberOfCells="2496">
<Points>
<DataArray  type="Float64"  NumberOfComponents="3"  format="ascii">0 0 0  0 1 0  1 1 0  1 0 0  1.1 -0.1 0  -0.1 -0.1 0  1.1 1.1 0  -0.1 1.1 0  0.2630554690418372 0.671007085375517 0  0.2601715425140397 0.3322848187015273 0  0.7412014666555179 0.3311729630741176 0  0.7430831820812218 0.6682622898778589 0  0.5017281802633035 0.5008692262258686 0  0 0.9499999999997918 0  0 0.8999999999995836 0  0 0.8499999999996529 0  0 0.7999999999999998 0  0 0.7500000000003466 0  0 0.7000000000006934 0  0 0.6500000000010401 0  0 0.6000000000013869 0  0 0.5500000000017335 0  0 0.5000000000020587 0  0 0.4500000000018723 0  0 0.4000000000016644 0  0 0.3500000000014564 0  0 0.3000000000012483 0  0 0.2500000000010403 0  0 0.2000000000008322 0  0 0.1500000000006241 0  0 0.100000000000416 0  0 0.05000000000020799 0  0.04999999999989965 0 0  0.09999999999981467 0 0  0.1499999999997036 0 0  0.1999999999995579 0 0  0.2499999999994121 0 0  0.2999999999992664 0 0  0.3499999999991206 0 0  0.3999999999989749 0 0  0.4499999999988292 0 0  0.4999999999986943 0 0  0.5499999999988151 0 0  0.5999999999989468 0 0  0.6499999999990784 0 0  0.69999999999921 0 0  0.7499999999993417 0 0  0.7999999999994734 0 0  0.8499999999996051 0 0  0.8999999999997368 0 0  0.9499999999998684 0 0  1 0.04999999999989965 0  1 0.09999999999981467 0  1 0.1499999999997036 0  1 0.1999999999995579 0  1 0.2499999999994121 0  1 0.2999999999992664 0  1 0.3499999999991206 0  1 0.3999999999989749 0  1 0.4499999999988292 0  1 0.4999999999986943 0  1 0.5499999999988151 0  1 0.5999999999989468 0  1 0.6499999999990784 0  1 0.69999999999921 0  1 0.7499999999993417 0  1 0.7999999999994734 0  1 0.8499999999996051 0  1 0.8999999999997368 0  1 0.9499999999998684 0  0.9499999999997918 1 0  0.8999999999995836 1 0  0.8499999999996529 1 0  0.7999999999999998 1 0  0.7500000000003466 1 0  0.7000000000006934 1 0  0.6500000000010401 1 0  0.6000000000013869 1 0  0.5500000000017335 1 0  0.5000000000020587 1 0  0.4500000000018723 1 0  0.4000000000016644 1 0  0.3500000000014564 1 0  0.3000000000012483 1 0  0.2500000000010403 1 0  0.2000000000008322 1 0  0.1500000000006241 1 0  0.100000000000416 1 0  0.05000000000020799 1 0  -0.1 1.05000000000004 0  -0.1 1.000000000000079 0  -0.1 0.9500000000001624 0  -0.1 0.9000000000003032 0  -0.1 0.850000000000444 0  -0.1 0.8000000000005848 0  -0.1 0.7500000000007256 0  -0.1 0.7000000000008665 0  -0.1 0.6500000000010508 0  -0.1 0.6000000000012352 0  -0.1 0.5500000000014196 0  -0.1 0.500000000001539 0  -0.1 0.4500000000014195 0  -0.1 0.4000000000013 0  -0.1 0.3500000000011588 0  -0.1 0.3000000000010178 0  -0.1 0.2500000000008986 0  -0.1 0.2000000000007579 0  -0.1 0.1500000000006174 0  -0.1 0.1000000000005272 0  -0.1 0.05000000000040083 0  -0.1 2.671196597248127e-13 0  -0.1 -0.0499999999998666 0  -0.0500000000000906 -0.1 0  -1.730560139634463e-13 -0.1 0  0.04999999999975802 -0.1 0  0.09999999999961506 -0.1 0  0.1499999999994613 -0.1 0  0.199999999999302 -0.1 0  0.2499999999991446 -0.1 0  0.2999999999990088 -0.1 0  0.3499999999988296 -0.1 0  0.3999999999986936 -0.1 0  0.4499999999985143 -0.1 0  0.4999999999984002 -0.1 0  0.5499999999985247 -0.1 0  0.5999999999986493 -0.1 0  0.6499999999987955 -0.1 0  0.6999999999989417 -0.1 0  0.7499999999990659 -0.1 0  0.7999999999992116 -0.1 0  0.8499999999993573 -0.1 0  0.8999999999994526 -0.1 0  0.949999999999584 -0.1 0  0.9999999999997226 -0.1 0  1.049999999999861 -0.1 0  1.1 -0.0500000000000906 0  1.1 -1.730560139634463e-13 0  1.1 0.04999999999975802 0  1.1 0.09999999999961506 0  1.1 0.1499999999994613 0  1.1 0.199999999999302 0  1.1 0.2499999999991446 0  1.1 0.2999999999990088 0  1.1 0.3499999999988296 0  1.1 0.3999999999986936 0  1.1 0.4499999999985143 0  1.1 0.4999999999984002 0  1.1 0.5499999999985247 0  1.1 0.5999999999986493 0  1.1 0.6499999999987955 0  1.1 0.6999999999989417 0  1.1 0.7499999999990659 0  1.1 0.7999999999992116 0  1.1 0.8499999999993573 0  1.1 0.8999999999994526 0  1.1 0.949999999999584 0  1.1 0.9999999999997226 0  1.1 1.049999999999861 0  1.05000000000004 1.1 0  1.000000000000079 1.1 0  0.9500000000001624 1.1 0  0.9000000000003032 1.1 0  0.850000000000444 1.1 0  0.8000000000005848 1.1 0  0.7500000000007256 1.1 0  0.7000000000008665 1.1 0  0.6500000000010508 1.1 0  0.6000000000012352 1.1 0  0.5500000000014196 1.1 0  0.500000000001539 1.1 0  0.4500000000014195 1.1 0  0.4000000000013 1.1 0  0.3500000000011588 1.1 0  0.3000000000010178 1.1 0  0.2500000000008986 1.1 0  0.2000000000007579 1.1 0  0.1500000000006174 1.1 0  0.1000000000005272 1.1 0  0.05000000000040083 1.1 0  2.671196597248127e-13 1.1 0  -0.0499999999998666 1.1 0  0.2456801160368604 0.6554418622771935 0  0.2326078604106459 0.6340761098507166 0  0.2218085733701476 0.6113615490672294 0  0.2132844678879171 0.5886529789800897 0  0.2068213834797523 0.5666389937868921 0  0.2016893739209688 0.5451838643101077 0  0.1982575110419886 0.5236448936080597 0  0.1976939826153396 0.5022317431197133 0  0.1981603639569289 0.4808481814231919 0  0.2011272578933303 0.4590251079820821 0  0.2057741295465444 0.4372236341609948 0  0.2120842917170707 0.4153618226297962 0  0.219778062620507 0.3928811836745159 0  0.230033189545617 0.3698289906723181 0  0.2428667799462256 0.3482552030691462 0  0.2789339118016247 0.3180635180660574 0  0.3025437517823301 0.3075122387253759 0  0.3278238488692286 0.2985787889017572 0  0.3534380275680761 0.2910166811453589 0  0.3786940568852976 0.2846617331407723 0  0.4034086019939527 0.2790440701535991 0  0.427833502090266 0.274494024920646 0  0.4522307876808146 0.2709520558882275 0  0.4766701217925842 0.268934425779652 0  0.5009557104915848 0.2682758063421803 0  0.5252144542330509 0.2690329486396785 0  0.5495328936954567 0.2711130887075033 0  0.5740447150644449 0.2743456988502652 0  0.5985758903290662 0.278975352903974 0  0.623548253611205 0.2843399114731665 0  0.6489037250742272 0.2906398194764148 0  0.6743317248907514 0.2979639468667555 0  0.6992992449374643 0.3066283458251193 0  0.7225942028741483 0.3168759509299495 0  0.7579854156270435 0.3469838805048519 0  0.7713653259466522 0.3677955990705948 0  0.7822637634501902 0.3904551282413259 0  0.7906093555515176 0.4129842916429479 0  0.7973012273402215 0.4349868888418134 0  0.8019019980411889 0.4568246000476525 0  0.8045566005649938 0.4782938196802443 0  0.8051507559794664 0.4993103408278008 0  0.8040546087636571 0.52023744173452 0  0.8013433650110618 0.5412965463226734 0  0.7970650053328783 0.5628438079250926 0  0.7911449997162735 0.5847652895952086 0  0.7833774526081958 0.6078361727698122 0  0.772993628441853 0.630843606580987 0  0.7600126295373903 0.652206568422683 0  0.72445088123671 0.682761685599624 0  0.701026829261959 0.6930339725752339 0  0.676365970544476 0.7020605944906462 0  0.6509396528267454 0.7100648734780118 0  0.6255505061549388 0.7169418683350357 0  0.6003839583148634 0.7227316546473236 0  0.5757812500778938 0.7275746271658404 0  0.5513292455211125 0.730937141404836 0  0.52710334503542 0.7330297069974713 0  0.5029784627896686 0.7337017024034977 0  0.4788008786854377 0.7330219051482805 0  0.4545053983032457 0.7309171989849091 0  0.4302239509622421 0.7274956660613671 0  0.4056642951117385 0.7230656005551024 0  0.3806354761355058 0.7176915583232553 0  0.3553884250785327 0.7113458192662417 0  0.3299067736043957 0.7039357035138788 0  0.3048118183917156 0.6952121577920267 0  0.281531271904375 0.6848613206185359 0  0.3635967497563697 0.3133554615214064 0  0.2335413130481047 0.4468309197953418 0  0.3655455298602901 0.6890516471034908 0  0.2343971968325781 0.5569862054797305 0  0.7667787735257588 0.5755484433857668 0  0.6146660109421634 0.6950325360639596 0  0.6374501426657528 0.3121823735963881 0  0.7713539362846126 0.4440006188228436 0  0.7747867173437594 0.5095881076530803 0  0.562080333205021 0.2973906163975515 0  0.4400796241073724 0.2996945762172276 0  0.4407445266931082 0.7026360869006574 0  0.5397510901581357 0.7057019870428937 0  0.2286416913507898 0.4909697568922356 0  0.2424598118352613 0.4019968231266992 0  0.4888074068813411 0.2983928859966662 0  0.2512377479565717 0.6003641345837851 0  0.7518894045984801 0.3978596890747003 0  0.4905836419643674 0.7069462489940289 0  0.6659698594505574 0.6815221916825097 0  0.3113733351088026 0.3299127233387131 0  0.6910321356618865 0.3305967959211358 0  0.3145427394467351 0.6754720353781871 0  0.7489087595572422 0.6227655493425296 0  0.2624338526363882 0.3572916364481307 0  0.2674699750162851 0.644833819206876 0  0.7163923579848923 0.6646856971636682 0  0.7397294906905881 0.355476915260364 0  0.3399715430737967 0.6827406599566154 0  0.3499637882293105 0.6618054523583108 0  0.3757755463786628 0.666719749798326 0  0.3594862353170005 0.6399623724712997 0  0.3867523051112178 0.6439749429666063 0  0.3690601818541183 0.6151531664789894 0  0.4020453429541891 0.6186820862928988 0  0.3811833764858593 0.5850500161482297 0  0.3358580962949221 0.6102902798905759 0  0.4215781409750132 0.5873408416613995 0  0.396646939579021 0.5497384217393905 0  0.3481998693678758 0.5536849789568836 0  0.3678347807823468 0.5153845679484031 0  0.3206294837902647 0.5171990420464555 0  0.3370103214279505 0.4836113148814173 0  0.3861500468167213 0.4775434597523021 0  0.3610805739116518 0.4455555348458649 0  0.4049020531596328 0.4384207016666417 0  0.3820236178470096 0.4078304448780962 0  0.4214312276665083 0.3934865420484147 0  0.34052687806304 0.4121657765799085 0  0.3943937399401969 0.3730084084091778 0  0.4336191290807995 0.62278342773256 0  0.4622598754982345 0.5968096754285316 0  0.4839057790795708 0.6248759851512975 0  0.504735351232672 0.5988727882570571 0  0.5248523078207029 0.6249280262502979 0  0.5461737763396711 0.5986625669151771 0  0.5654646032569876 0.6242567777677187 0  0.5873783770090858 0.5979993252973519 0  0.6067918824930755 0.6253248004725226 0  0.6291484169421978 0.5895154089822027 0  0.6111937989029113 
[...]
<PointData  Scalars="v"> 
<DataArray  type="Float64"  Name="v"  format="ascii">4.6031165706198866e-21  5.9357570650728802e-21  -7.1218796981797062e-22  2.9983207136091739e-21  -9.6782538964458150e-23  -1.3311966642847281e-22  1.9220178298634886e-24  -3.5611462769357476e-22  4.7749691702632468e-05  7.9149380857099192e-05  1.3850965701950394e-05  -1.7207523444730194e-05  -1.0021003277680183e-05  1.2341000604391304e-20  2.1870686505569190e-20  -1.0242993073139988e-20  -4.1318218031775501e-20  7.1618912949798060e-20  1.2782233281086434e-19  -5.0910453394970846e-20  2.5463421032612189e-19  2.5632727105949705e-19  -3.2003340783629990e-19  -5.4445989368176389e-21  1.6375420267139363e-19  5.2009955248858370e-20  -3.4099485624974304e-20  -2.5586735948199524e-20  1.3738209585848716e-20  7.2593840032725224e-23  -2.6492458663172180e-20  1.8336403594420674e-20  -7.5053339348881741e-21  1.3312852617503980e-20  5.0068377631472211e-20  -5.7315801122260142e-21  4.6641558368549160e-21  6.2677288478646285e-20  8.2278188810769258e-20  4.3176342007846132e-20  -9.7268578667979099e-20  9.7671392569826733e-20  -7.8091573957718575e-20  -1.0434876825473903e-19  7.8515183257476158e-20  5.4883952594275487e-21  -2.3030584717708408e-21  1.0362899459002350e-19  -6.4626472256248347e-21  2.1932610120542520e-20  -4.2063626627937197e-21  1.6075814163441322e-20  1.8309278346342870e-20  -2.4688708733840437e-20  1.4780489247992388e-20  7.5645803459291536e-20  -4.1973851011262821e-20  6.3935721185249117e-21  2.8165640599468545e-19  -2.1052588515263584e-20  7.6486973154090725e-21  2.6868633576682898e-20  8.1576254076018806e-20  -1.3023297883359912e-21  -3.4703984916610562e-20  3.5785731531214321e-20  -6.1385004896805206e-21  2.3924224595137436e-21  4.3659976478367342e-20  3.7491121579251123e-21  -1.3102339365853037e-21  1.0635966128038329e-20  8.5869069797722703e-21  8.1258642151012152e-20  5.8261550149835344e-20  -2.0723494850207849e-20  2.5430944128949863e-20  1.2210289202767324e-19  5.0820842847567346e-20  3.9498368775526555e-20  3.8339551939503685e-20  -5.4676589867287847e-20  -1.6888946064055768e-20  -2.8276193942861318e-20  -2.9085997850624543e-20  -1.4641674192743526e-21  6.3182423049005008e-20  -2.2357638245212004e-20  -3.1880034201864663e-20  1.8499823027761898e-23  5.6045296289976241e-22  2.4762341832748124e-21  2.0113149516764022e-21  -3.3514250966102085e-21  -2.9215347778413541e-21  1.1854409479771042e-20  1.1083302985538692e-20  2.0340980089622677e-21  3.5708628426369436e-20  2.2288958312210894e-20  -2.6536977174053173e-20  -6.1489914445477640e-21  2.1825037364665782e-20  9.6849802153369929e-21  -7.2638662323858836e-21  -5.5388493780259347e-21  -1.5031735999976401e-22  -3.3347287628583375e-22  -2.3397190226384052e-21  1.1773043450042714e-21  1.4529006330293247e-21  -2.9145409751610783e-22  2.7335594734548099e-22  2.7109526254354809e-22  -8.2160787926153523e-22  2.6997099586458385e-21  5.4381377299048651e-21  1.2435421753490105e-22  1.4561894767496730e-21  6.9654165792189939e-21  1.3290572679683615e-20  1.4399234408717067e-21  -5.3260610540477069e-21  5.5535386801463261e-21  -7.2370459052445249e-21  -1.5662096848444345e-20  4.9821148624350648e-21  3.3700565807686202e-21  1.2345483327682876e-21  1.4442606649140989e-20  4.3241243189138220e-21  -2.3022382282133621e-21  5.6138530885608747e-22  -8.2860610628916094e-23  2.1634772584965079e-22  -1.1225589183594109e-22  5.0896651148300671e-22  2.6110008359227282e-21  1.3778834130884472e-21  -2.3074694101035945e-21  3.1545265210776313e-21  8.3755438926128129e-21  -6.9142404870511104e-21  6.1745935401906770e-21  2.8642281334970977e-20  7.7293976228881992e-21  -4.1952583947000861e-21  6.7960075654147969e-21  9.1363641460677051e-21  2.4146884974261643e-23  -3.8579509933824280e-21  4.8527629672837859e-21  -2.8157639352527068e-22  1.0961923045712196e-21  4.5601760142005318e-21  1.4634416214114091e-21  -4.7665347291800851e-22  6.5574278413001797e-23  4.7010918168914287e-23  -2.6004697545117895e-22  2.2970852508741489e-22  4.2137935312018107e-22  4.3609832338445957e-21  3.1804076213846162e-21  7.8017937797049529e-21  -1.9294053798056105e-21  5.8132510800136157e-21  1.0747205467720371e-20  5.8548231549198197e-21  7.1082354959679969e-21  3.0096600253583725e-21  -5.1382351382195503e-21  -4.2294850085692230e-21  -4.2144324142317888e-21  -6.5963820650823616e-21  4.6579434645382301e-21  9.6243615020447082e-21  -2.5202926205232586e-21  -4.2495161964671586e-21  2.2149608476231636e-22  5.2321013556103363e-22  4.9152244654852441e-05  5.2169161063871809e-05  5.4081809896512444e-05  5.4430356111233715e-05  5.4153836354965794e-05  5.3685045781373523e-05  5.3978323114036046e-05  5.5136514769581814e-05  5.7492881673488461e-05  6.0302463813093041e-05  6.3953213122930249e-05  6.8862976679094377e-05  7.2517539660558886e-05  7.5073665829188867e-05  7.6810785954487898e-05  7.9322729539190340e-05  7.9862661717536128e-05  7.4152834476065035e-05  6.5782236605840702e-05  5.8006037174290813e-05  4.7875678542760172e-05  3.9755416196170126e-05  3.2194765671189561e-05  2.6106178307626680e-05  2.2102142756531496e-05  1.8232766375422346e-05  1.5876008096182614e-05  1.5165303132329599e-05  1.6554253572987333e-05  1.8431774797782251e-05  2.0418509515089652e-05  2.1798251977192296e-05  2.1839564117588415e-05  1.6608974820663665e-05  8.3012158523065138e-06  3.8610497860937275e-06  -7.4266547523813158e-07  -5.0835940422518721e-06  -9.4877447826893390e-06  -1.4444814046070592e-05  -1.5858500762135496e-05  -1.7364016352160984e-05  -1.8384105631680695e-05  -1.9483360108945182e-05  -1.9448064096695143e-05  -1.9135293755454619e-05  -1.8769361499731306e-05  -1.8273986088669418e-05  -1.8239931699410019e-05  -1.6624580662519622e-05  -1.7156772870937262e-05  -1.8855923106130741e-05  -2.2981459950307292e-05  -2.7640734905243509e-05  -3.0381891637287349e-05  -3.3452128609279541e-05  -3.2579877832698731e-05  -3.1889150714772577e-05  -2.9116565873694701e-05  -2.4607371080080031e-05  -1.8777178115778203e-05  -1.0794614838074432e-05  -1.4773016514715364e-06  8.1507640776464310e-06  1.9667287056437512e-05  3.0198487789087163e-05  3.8464749142248821e-05  4.3608321525331187e-05  5.8045253879441488e-05  6.4042900839417690e-05  1.4078345817010083e-05  5.3584310299124246e-05  -2.3585251919845833e-05  -3.2609747949333110e-05  1.2004858404768019e-05  -1.3386346553355921e-05  -2.1027757329253763e-05  1.1987434513661262e-05  3.3958028962860175e-05  -1.5425930522969973e-05  -3.7914148083702395e-05  5.8915664150579734e-05  6.9732504577278725e-05  2.1223404686348590e-05  5.0203872642676734e-05  -3.8305525855517476e-06  -3.2821541878856994e-05  -2.7208494829958731e-05  6.9911112026882374e-05  1.0309357843452416e-05  3.2109450898541100e-05  -2.2461075688586309e-05  7.4012860386543270e-05  4.5452500925382979e-05  -2.2745995145672694e-05  5.4463490629083583e-06  2.3581514636429497e-05  2.1599285471018956e-05  1.1454750212404547e-05  1.9946672219150300e-05  8.7674868150504845e-06  1.7234682707505310e-05  4.3952932984588031e-06  1.4460207943946783e-05  2.9206242460760204e-05  1.2751590242193478e-07  1.2753700732200944e-05  2.9134097172664835e-05  2.6849975619981948e-05  4.1550508995693054e-05  4.1306828629827244e-05  2.6623562755154409e-05  4.0143533075583884e-05  2.7111209622495924e-05  4.0043215533822739e-05  2.8573358675465748e-05  5.1864142579124814e-05  4.1249669700044007e-05  -8.4934198569349769e-06  -1.5074997503300300e-05  -2.3439759813949460e-05  -2.6486266497739556e-05  -3.1876968464391396e-05  -3.2912852216916644e-05  -3.5940696856158876e-05  -3.4790871162467289e-05  -3.5327470384215020e-05  -3.3675602807272467e-05  -3.1831935961437776e-05  -3.0159649634784586e-05  -2.7853992027819706e-05  -3.0994258149061923e-05  -2.9173998526538536e-05  -3.5893948987187562e-05  -2.0958254033168678e-05  4.3211997285926872e-05  4.9963535153506689e-05  2.8001426452868243e-05  1.7860914367583295e-05  8.9337881850328244e-07  3.8137944686066546e-05  -3.1371132354836341e-05  -3.5968461334782454e-05  1.7010880400597289e-05  8.1939024518066423e-06  1.0224002102049616e-05  2.7217157045464077e-06  -2.2114525561465462e-06  -4.3178083145213334e-06  1.7805061724187957e-07  -4.2732108259339358e-06  -1.4685145759581372e-05  -9.9216396346604761e-06  -3.1679412862850688e-06  -8.1010057363950126e-06  -1.4608396549321999e-05  -1.2422573018619536e-06  -5.8136098445063693e-06  1.2407814774641765e-06  4.7792264361454911e-06  -2.6920616880482514e-05  -2.7952295437642828e-05  -2.9636097266719105e-05  -2.6210781689563615e-05  -2.7080552123868944e-05  -2.6237281413065424e-05  -2.6653690180268548e-05  -2.9198765907787737e-05  7.2398269365332513e-06  1.2831702055749034e-05  -2.4904489107163707e-05  2.7468622717495026e-05  5.2927333231761476e-05  6.0600537638472759e-05  6.1950856923283243e-05  5.1279982480676758e-05  5.8841351684892282e-05  6.6713627743348821e-05  6.7929509904170800e-05  6.3264530619161222e-05  5.1424477730249390e-05  4.5929324612677132e-05  5.5553381258402902e-05  3.6834570526344131e-05  -1.3327503408094493e-05  6.5289116528148707e-05  1.2728142994319789e-05  -2.7809509024728032e-05  -2.5618790322194757e-05  -2.2663346862714813e-05  -2.0824665046258988e-05  -2.1779391702162387e-05  -1.8340596437611726e-05  -1.5937431299577511e-05  4.9373904925794498e-05  4.9362587391389420e-05  5.7405153954561837e-05  -2.2006630725514642e-05  5.2457030175408702e-06  1.0606557854468453e-06  -3.2559353634476003e-05  -3.1436220493291169e-05  3.9000017680468651e-06  2.9527516702951373e-06  6.8567992870982598e-06  8.4833937372214275e-06  4.0770548831352941e-05  3.7852249650685137e-05  4.8337604219924448e-05  6.7093138512748244e-05  7.1530752963738250e-05  6.4559377342128155e-05  5.5857007727458685e-05  6.1799476288980256e-05  -2.6683165877339139e-05  3.2360671595281173e-05  3.9374200129174618e-05  7.2403858109743328e-05  -5.9375779869723448e-06  -9.0208147547992180e-06  -2.3750866585253591e-06  -2.3450434190805038e-05  3.9994697359852683e-06  1.1420014613306358e-05  1.1957894047029647e-05  4.1252531050837450e-05  2.5268213938971281e-05  5.0071253348634168e-05  4.8376146019662032e-05  4.5121515881074096e-05  -3.7110252994917444e-05  -8.9704052660824561e-06  -1.1623262882598831e-05  -3.4662032864227623e-05  -3.4568720722231412e-05  -3.7386248377643401e-05  -2.9960748797779286e-05  -2.6241516546383332e-05  -2.4465091889611484e-05  -7.3051637410046032e-06  1.8164522923798143e-05  -2.7139693227166980e-05  1.1854853535588215e-05  6.0325766406152405e-05  7.3129454064101718e-05  3.8885703933990401e-05  -2.3926068490869132e-05  9.5194615283835919e-06  -2.3335544119458545e-05  1.5417944112212005e-05  -2.5344131897113230e-05  -2.3962236842748283e-05  5.2218480772276686e-05  6.6789599629250225e-05  7.0101387357486336e-05  1.1546532744459887e-06  1.1185105071069359e-05  -2.9537275096244773e-05  -3.4663189187343488e-05  -1.3034073060562189e-05  1.3964028107419208e-05  5.1361606983722126e-05  1.2133459983328766e-05  -1.1625523608019181e-06  -1.7550264847716593e-05  2.8918161921392320e-05  8.3737813099215160e-06  -2.5291870790931928e-05  4.5873901203106226e-05  -1.7676162729560707e-05  5.7271611303142235e-05  -1.8658610942838108e-05  -3.1132159277235680e-05  -2.4692135938022659e-05  -3.6283216345297550e-05  8.5672914555413550e-06  2.4152447741419553e-06  -2.5404301877629891e-05  -1.3962431759612778e-05  -2.2633696203807276e-05  -1.6022664685797800e-05  1.7698644294945106e-06  2.6474866457352587e-05  5.4696810428495672e-06  5.3686325211568640e-06  1.0267867894220275e-05  -3.6084082285371349e-05  5.9903339035654308e-06  5.4958728262082412e-05  5.3796358929079727e-05  -3.1385890658312719e-05  -2.0918438657783337e-05  6.2465078367121080e-05  5.6918303128196080e-05  -1.4286820171535696e-05  -1.8550893209195125e-05  2.2715431755612140e-05  7.2743918191075995e-08  -2.7407212191803859e-05  5.0707055114751997e-05  -3.2081665303414804e-05  -3.3631288607710068e-05  -3.3939697846726404e-05  3.3928555426217637e-05  -2.7055011901313622e-05  -3.6943128881010758e-05  6.9361264428151795e-05  6.2265382886064845e-06  3.8594147490631453e-05  -3.0705875957916884e-05  4.5074455188636941e-05  8.6753670926928277e-06  -1.5157586831597937e-05  6.8173776986055762e-05  9.4516982968340965e-06  -3.5764967010461077e-05  3.9948183185230010e-05  -2.9447852213549079e-06  5.7771019136440370e-05  -3.6493238159727275e-05  2.3813584173796874e-05  -3.0751272293368033e-05  -2.5574097693250942e-05  -1.9258726795021005e-05  -1.0097385483929740e-05  -1.9010109744902398e-05  -7.7942185107873843e-06  6.0909957045652915e-05  3.5722582450620803e-05  4.3330322300047281e-05  1.6151668934127083e-05  4.8101804176837242e-05  2.5733921350994588e-06  -1.9395620328983462e-05  4.4342780661401493e-05  -2.8091681651051199e-05  -1.7303784168340597e-05  3.1173617779483692e-06  2.9634036403048186e-05  -2.6777417630339356e-05  -1.9422563382002587e-05  3.1845849035878472e-05  5.2383493705113178e-05  2.0685098959102244e-05  1.8648919388842589e-05  1.9418785674663125e-05  7.1378014261734636e-05  1.7182107367739627e-06  1.3199840181162807e-05  8.1386546462450963e-06  8.1234808726323358e-06  5.3258336025324493e-05  5.0717179776028180e-05  2.5273706745577135e-06  -1.1483748418736373e-05  -1.5729623005827267e-05  -1.5093260011246147e-05  -1.6285453284582027e-05  6.0581195487270897e-05  7.3023551558570838e-05  -1.3236293177688771e-05  -1.1694802289732476e-05  -1.2927154781931946e-05  -9.2623251635440723e-06  -1.0294746168965355e-05  -1.6510371457725435e-06  1.0008086140066457e-05  7.2122716402099134e-06  8.2231932669070313e-07  1.1222322290440648e-05  6.1273836718270529e-06  1.6124821389863864e-05  -6.3621806844746625e-06  -8.0601910116724273e-06  -9.7266009950528655e-06  -1.1281409409844360e-05  1.0097409387819905e-05  1.2148264110908414e-05  3.8010432897786519e-06  4.0130976225068329e-07  9.4006750856408937e-06  -4.5399092972540509e-07  1.6119775189650182e-05  -4.8971686256087887e-07  -7.3071982167272985e-06  -8.8947886799847538e-06  5.2146639411696927e-06  6.8330604379390582e-06  1.4494634035167979e-05  7.4909732422692845e-05  7.4166001941598298e-05  7.2169483587502731e-05  7.0836858155997730e-05  6.8665528740178926e-05  6.6434910699246871e-05  6.8677906537919323e-05  6.3379119554045704e-05  6.4719242787238693e-05  5.9757910409669802e-05  4.0447609573262270e-05  4.2720377753280416e-05  3.8934463482050526e-05  4.0847860654486898e-05  4.3404774897443555e-05  3.7327984111023165e-05  3.8756040807221114e-05  3.5051191911177502e-05  3.2876261450634290e-05  3.5366432067002747e-05  6.7840816044027559e-05  9.7648294217181492e-06  1.2743586455264474e-05  1.0899728978811909e-05  1.3924780548727118e-05  1.5717716998623067e-05  1.6673064063539339e-05  1.8350982067306934e-05  1.8800373873445732e-05  2.0256412501523256e-05  -1.4810083567820348e-05  5.5651144653639151e-05  5.2590664412018082e-05  -4.9595474622367577e-06  1.5023782220931162e-05  3.0573801305211021e-05  2.7550509467166793e-05  1.9819851489305034e-05  5.8570068009122954e-05  5.9427790927130049e-05  1.6987192858136837e-06  2.0561088950292887e-05  2.1226772443137275e-05  -3.7205521371222086e-06  -4.7935549834470047e-06  -8.8853138291115665e-06  -5.5698133861031581e-06  -1.6390110637521714e-05  2.5437819406429282e-05  5.1048954992412633e-05  8.2349095147266697e-06  5.4706762304277283e-06  1.1862502467362952e-05  5.0358283321779545e-05  2.7917985245108650e-05  -4.9747531761176603e-06  -6.2307886265510260e-06  2.0477768978911923e-05  2.1212165157952865e-05  -5.7710397327398909e-06  -9.8253496675255776e-06  2.1598629690162049e-05  2.2141371260143712e-05  1.5926058801162015e-05  1.5070212572771476e-05  9.2259460061201112e-06  5.8519997526229843e-06  4.9556926691826253e-05  5.5176680143702143e-05  4.5960259256290332e-05  4.9904918189881463e-05  4.0872502381853387e-05  4.3196446155812372e-05  3.5001008906488312e-05  3.5999163059074928e-05  2.9275432964688753e-05  2.9614415458245424e-05  2.4610921933510823e-05  2.4704325870192334e-05  2.1061113302516461e-05  2.1526410658840924e-05  2.7863034670882713e-06  -1.7916632437765976e-06  -2.8592691485331113e-06  -8.3176019077635824e-06  -7.4817436560492201e-06  -1.3338033879080790e-05  -1.0631032588955618e-05  -1.6411413395661469e-05  1.9134477504482467e-05  1.8390979882041171e-05  1.7510613966429357e-05  -1.4151135921526634e-05  -1.5292465977536167e-06  -5.4596865408330310e-07  1.9224619375529629e-05  2.0195651705643243e-05  1.8413761159527309e-05  1.9730431356690444e-05  1.8447616197135531e-05  -1.2427806663228163e-05  -1.7347201563487731e-05  -1.2409189019147661e-05  -1.6442563199978708e-05  -1.1212583815205042e-05  3.8229894904123457e-05  3.3428438828490763e-05  3.4890594075379154e-05  -2.1501505461862825e-05  -1.9643184002915885e-05  2.0061883811389715e-05  2.0086960417681972e-05  -1.9701315818872783e-05  1.9292504698907145e-05  2.3805721839930134e-05  4.0856255680172872e-05  -7.7553557581653850e-06  1.9917216820292917e-05  3.5011773837237467e-05  1.9362821833539514e-05  1.7741332809176104e-05  1.6812153770302766e-05  -5.4851532794066487e-06  -6.4048302077633614e-06  -2.8414475922107844e-06  9.5738298242683531e-06  9.9806858296784714e-07  5.0708439411291807e-05  -2.7878715626557869e-06  -1.6663331194146629e-06  -3.5213470470848936e-06  -7.7203657806198864e-06  1.5738054415444245e-05  1.6411232772833959e-05  1.2991574810987696e-05  2.1070168314346638e-05  1.2364656892652275e-06  -1.2619701325622936e-05  -1.2901026477636243e-05  5.5198335068579616e-06  -4.5722131787344184e-06  -7.9460127556392486e-06  3.0934134869748872e-05  7.1821242064076482e-05  3.5261760115254871e-05  7.6196946548233554e-06  9.2684301096328987e-06  6.0335285341921404e-06  7.9447290466167374e-06  4.4729881452943862e-06  6.4944077350781581e-06  2.7851196447615071e-06  1.0035711047071130e-05  2.0925225676744640e-07  -5.4605027061705585e-07  -3.7584647185315193e-06  -3.3407259966577904e-06  -6.7775224732419859e-06  -5.5676744503847558e-06  -8.9865118086180460e-06  2.8857353897871249e-05  2.7769989417724716e-05  1.7200723295687902e-06  1.8777583603998235e-07  -1.1281946494176161e-05  -1.1255333666137588e-05  2.4032844755285359e-06  -7.8476131878684143e-06  2.2501480116685628e-07  1.6618693872867996e-05  -2.7488760045909006e-06  3.9837022365608567e-06  6.3161971848995970e-06  8.6955628553201376e-06  7.3881665591772635e-05  4.6932927756438748e-05  4.0381406057700341e-05  3.4640040798143754e-05  4.0913346522957626e-05  2.1884081625553982e-05  2.1133904625337830e-05  1.3660948005617719e-05  3.2091890138556216e-05  3.7637518700397229e-05  4.3972405995187927e-05  4.2786987247978748e-05  3.3454663240377470e-05  3.8894550100305467e-05  4.5618287053498304e-05  4.4001883253065936e-05  3.5340519755738364e-05  4.0653053479299269e-05  3.1176365944970901e-05  3.8302036484000615e-05  4.5935678337176740e-05  4.5960948945029740e-05  3.6876348389539003e-05  4.6967599176348856e-05  3.6098440087215997e-05  4.6794378818805290e-05  5.4937451895689122e-05  5.5653425203251010e-05  4.7583177552732169e-05  5.8167141930134035e-05  4.7289716439740461e-05  5.8658875055943368e-05  4.5083138144934784e-05  5.3831476744562027e-05  -2.4543467940567539e-05  -2.1780336902500653e-05  -2.5370048266700948e-05  2.1081492301336202e-05  2.0458102600829565e-05  1.5982176774234037e-06  2.6055245407170426e-05  1.9428500257994766e-05  1.9810455575448993e-05  1.9912707046955121e-05  -7.0468327886892171e-06  -1.6657069960269135e-05  -4.5880091568018926e-06  -2.6978563824386635e-05  -3.4825628753140705e-06  6.5479873782651974e-05  3.8368382544326859e-05  4.7481642599565900e-05  -9.6976933902464284e-06  1.5701982550221825e-05  1.6066472927019616e-05  1.9114597859172922e-05  -5.3028806855587453e-07  1.3659830366701523e-05  -1.3924495826037948e-05  -1.3615607592425416e-05  -1.3854082818673536e-05  -1.1549557732607979e-05  -7.4157734752422318e-06  -6.5347779868635010e-06  3.0745025755513883e-05  -1.1754137189282756e-05  4.8680872540629343e-05  1.5175389959326628e-05  1.1752014510641377e-05  1.6092941001104536e-05  1.3173199359652776e-05  2.7977546440558279e-06  8.8803064622435265e-06  2.44215764