<?xml version="1.0"?>
<VTKFile type="UnstructuredGrid"  version="0.1"  >
<UnstructuredGrid>
<Piece  NumberOfPoints="1297" NumberOfCells="2496">
<Points>
<DataArray  type="Float64"  NumberOfComponents="3"  format="ascii">0 0 0  0 1 0  1 1 0  1 0 0  1.1 -0.1 0  -0.1 -0.1 0  1.1 1.1 0  -0.1 1.1 0  0.3098404408282443 0.6665255807971755 0  0.3098199516476441 0.3325965544722938 0  0.6897058764830726 0.3329703646530135 0  0.6896829999984521 0.6659864887259014 0  0.499603590721178 0.499473977127487 0  0 0.9499999999997918 0  0 0.8999999999995836 0  0 0.8499999999996529 0  0 0.7999999999999998 0  0 0.7500000000003466 0  0 0.7000000000006934 0  0 0.6500000000010401 0  0 0.6000000000013869 0  0 0.5500000000017335 0  0 0.5000000000020587 0  0 0.4500000000018723 0  0 0.4000000000016644 0  0 0.3500000000014564 0  0 0.3000000000012483 0  0 0.2500000000010403 0  0 0.2000000000008322 0  0 0.1500000000006241 0  0 0.100000000000416 0  0 0.05000000000020799 0  0.04999999999989965 0 0  0.09999999999981467 0 0  0.1499999999997036 0 0  0.1999999999995579 0 0  0.2499999999994121 0 0  0.2999999999992664 0 0  0.3499999999991206 0 0  0.3999999999989749 0 0  0.4499999999988292 0 0  0.4999999999986943 0 0  0.5499999999988151 0 0  0.5999999999989468 0 0  0.6499999999990784 0 0  0.69999999999921 0 0  0.7499999999993417 0 0  0.7999999999994734 0 0  0.8499999999996051 0 0  0.8999999999997368 0 0  0.9499999999998684 0 0  1 0.04999999999989965 0  1 0.09999999999981467 0  1 0.1499999999997036 0  1 0.1999999999995579 0  1 0.2499999999994121 0  1 0.2999999999992664 0  1 0.3499999999991206 0  1 0.3999999999989749 0  1 0.4499999999988292 0  1 0.4999999999986943 0  1 0.5499999999988151 0  1 0.5999999999989468 0  1 0.6499999999990784 0  1 0.69999999999921 0  1 0.7499999999993417 0  1 0.7999999999994734 0  1 0.8499999999996051 0  1 0.8999999999997368 0  1 0.9499999999998684 0  0.9499999999997918 1 0  0.8999999999995836 1 0  0.8499999999996529 1 0  0.7999999999999998 1 0  0.7500000000003466 1 0  0.7000000000006934 1 0  0.6500000000010401 1 0  0.6000000000013869 1 0  0.5500000000017335 1 0  0.5000000000020587 1 0  0.4500000000018723 1 0  0.4000000000016644 1 0  0.3500000000014564 1 0  0.3000000000012483 1 0  0.2500000000010403 1 0  0.2000000000008322 1 0  0.1500000000006241 1 0  0.100000000000416 1 0  0.05000000000020799 1 0  -0.1 1.05000000000004 0  -0.1 1.000000000000079 0  -0.1 0.9500000000001624 0  -0.1 0.9000000000003032 0  -0.1 0.850000000000444 0  -0.1 0.8000000000005848 0  -0.1 0.7500000000007256 0  -0.1 0.7000000000008665 0  -0.1 0.6500000000010508 0  -0.1 0.6000000000012352 0  -0.1 0.5500000000014196 0  -0.1 0.500000000001539 0  -0.1 0.4500000000014195 0  -0.1 0.4000000000013 0  -0.1 0.3500000000011588 0  -0.1 0.3000000000010178 0  -0.1 0.2500000000008986 0  -0.1 0.2000000000007579 0  -0.1 0.1500000000006174 0  -0.1 0.1000000000005272 0  -0.1 0.05000000000040083 0  -0.1 2.671196597248127e-13 0  -0.1 -0.0499999999998666 0  -0.0500000000000906 -0.1 0  -1.730560139634463e-13 -0.1 0  0.04999999999975802 -0.1 0  0.09999999999961506 -0.1 0  0.1499999999994613 -0.1 0  0.199999999999302 -0.1 0  0.2499999999991446 -0.1 0  0.2999999999990088 -0.1 0  0.3499999999988296 -0.1 0  0.3999999999986936 -0.1 0  0.4499999999985143 -0.1 0  0.4999999999984002 -0.1 0  0.5499999999985247 -0.1 0  0.5999999999986493 -0.1 0  0.6499999999987955 -0.1 0  0.6999999999989417 -0.1 0  0.7499999999990659 -0.1 0  0.7999999999992116 -0.1 0  0.8499999999993573 -0.1 0  0.8999999999994526 -0.1 0  0.949999999999584 -0.1 0  0.9999999999997226 -0.1 0  1.049999999999861 -0.1 0  1.1 -0.0500000000000906 0  1.1 -1.730560139634463e-13 0  1.1 0.04999999999975802 0  1.1 0.09999999999961506 0  1.1 0.1499999999994613 0  1.1 0.199999999999302 0  1.1 0.2499999999991446 0  1.1 0.2999999999990088 0  1.1 0.3499999999988296 0  1.1 0.3999999999986936 0  1.1 0.4499999999985143 0  1.1 0.4999999999984002 0  1.1 0.5499999999985247 0  1.1 0.5999999999986493 0  1.1 0.6499999999987955 0  1.1 0.6999999999989417 0  1.1 0.7499999999990659 0  1.1 0.7999999999992116 0  1.1 0.8499999999993573 0  1.1 0.8999999999994526 0  1.1 0.949999999999584 0  1.1 0.9999999999997226 0  1.1 1.049999999999861 0  1.05000000000004 1.1 0  1.000000000000079 1.1 0  0.9500000000001624 1.1 0  0.9000000000003032 1.1 0  0.850000000000444 1.1 0  0.8000000000005848 1.1 0  0.7500000000007256 1.1 0  0.7000000000008665 1.1 0  0.6500000000010508 1.1 0  0.6000000000012352 1.1 0  0.5500000000014196 1.1 0  0.500000000001539 1.1 0  0.4500000000014195 1.1 0  0.4000000000013 1.1 0  0.3500000000011588 1.1 0  0.3000000000010178 1.1 0  0.2500000000008986 1.1 0  0.2000000000007579 1.1 0  0.1500000000006174 1.1 0  0.1000000000005272 1.1 0  0.05000000000040083 1.1 0  2.671196597248127e-13 1.1 0  -0.0499999999998666 1.1 0  0.2984639911237236 0.654426417856788 0  0.2873227149143182 0.6365656821528912 0  0.2793600180896369 0.6157860810249243 0  0.2737089324685766 0.5933587679643753 0  0.2697199137196442 0.5702334923256016 0  0.2669987275738692 0.5468270003054881 0  0.2653424319950823 0.5232474315249276 0  0.2648355911220207 0.4995765035576006 0  0.265416510974246 0.4759022316083274 0  0.2670098858746219 0.4522814851505164 0  0.2697179809540495 0.4288421588718684 0  0.2737478228964754 0.4057336579079154 0  0.2794319446362238 0.383373019816185 0  0.2873856381350874 0.3625388656498566 0  0.2985943527264377 0.3446373248140349 0  0.3217736589795784 0.3151111214864413 0  0.3374030439469621 0.2997069818462173 0  0.3561502244120004 0.2871995237621952 0  0.376368870598127 0.2770466916170626 0  0.3970129474013034 0.2688444325889037 0  0.4177319191645033 0.2622896830281401 0  0.4382982054030554 0.2571990722343698 0  0.458831655441576 0.2534057368906323 0  0.479397521393971 0.2511353086730747 0  0.4999664498215745 0.2503977012549078 0  0.5205279507184123 0.2511892529038764 0  0.541089190025719 0.2534762116624182 0  0.5616866004743866 0.2572074173847807 0  0.5822804169194418 0.2623481390118398 0  0.6031249579266237 0.2689683401533384 0  0.6238387102226408 0.2772200529672811 0  0.6438945994406619 0.2874295206706988 0  0.6624235218107558 0.2999247278372479 0  0.6778567689181543 0.3152992728802704 0  0.7010513989036323 0.3450695386995479 0  0.7119801099430355 0.3627394049002114 0  0.7198334074629327 0.3835320695621861 0  0.7253712292036889 0.4059013559837965 0  0.7292500857964596 0.4289795353180401 0  0.731831319559995 0.4523473235426956 0  0.7332773966536035 0.4758437558207987 0  0.7336820144669522 0.4993972848415259 0  0.7330025107117295 0.5229277691694786 0  0.7314678977092056 0.5463326392302368 0  0.7289529437590478 0.5696502752719422 0  0.7251830343749205 0.5927299032093416 0  0.7197432221691862 0.6151892453441959 0  0.7119644934395249 0.63605816301629 0  0.7010838923097179 0.6538168973878018 0  0.6779372993522348 0.6835541186298302 0  0.6625316226590297 0.6989222702337295 0  0.6440439883863749 0.7114657330736385 0  0.6239647911955265 0.7217012913652823 0  0.6032048771684413 0.729993681804703 0  0.5822997722436009 0.7366513293027648 0  0.561667083166138 0.7418111416080108 0  0.5410471630235715 0.7455275443764685 0  0.5204967091954431 0.7477755138044113 0  0.4999888914236597 0.7485414340197738 0  0.4794560766885552 0.7478082119990385 0  0.4588964266336757 0.7455303647371021 0  0.4383631728087988 0.7417625211551927 0  0.4177041540553418 0.7366997504211216 0  0.3968748847370147 0.7301716954870734 0  0.3762105480361759 0.7219964597139443 0  0.3560292978923951 0.711855565577362 0  0.3373280461387203 0.6993375562494208 0  0.3217401382173541 0.6839385640013412 0  0.3879565680846161 0.2998368738828812 0  0.2912657657725228 0.4399391788026621 0  0.3878566959441562 0.6991766051410252 0  0.2912556029611691 0.5592062827128208 0  0.7060365085210113 0.5816417893246952 0  0.5917564681194111 0.7071075871521254 0  0.6111606302089118 0.2991499342278148 0  0.7092244078107428 0.4392411126323063 0  0.7111101282772072 0.5106638205393895 0  0.5503371780956408 0.2815213513994918 0  0.4497863586954156 0.2838584301435985 0  0.4486127275576999 0.7154568124221657 0  0.5304707706600496 0.7188888118865453 0  0.2880640211948924 0.4875811100667239 0  0.2973992080601324 0.3935875954062809 0  0.489894865498704 0.2823395137194467 0  0.3030866476217157 0.604124464731459 0  0.6955928740596377 0.3915344714802337 0  0.4897515424889594 0.7202207754358045 0  0.6320480049070617 0.6910472964346291 0  0.3482774140154531 0.3205693426120838 0  0.651630369168569 0.322395963914469 0  0.348630549717021 0.6812351272348107 0  0.6927268244610073 0.6285027502762116 0  0.3127491555932885 0.3505359887112978 0  0.3147485680029053 0.6476090496728647 0  0.6697778508815588 0.669567274003832 0  0.6873055496301914 0.3504122205170413 0  0.367941458912809 0.6909650222801101 0  0.377996851752152 0.6696970942959533 0  0.3981104124379103 0.6758868342788669 0  0.3868107117123871 0.6469859684480831 0  0.4080637487454638 0.6519137427680038 0  0.395057297212216 0.6208773788645734 0  0.4208041425230588 0.625094408566773 0  0.4049713438932435 0.5889582336343044 0  0.3692623131697478 0.615157437965824 0  0.4365032053078788 0.5916834449889931 0  0.4172768705875067 0.5513418525047604 0  0.3794665000156976 0.5553466199303144 0  0.3949581271075844 0.5145901830373834 0  0.3582432550392322 0.5163512593748401 0  0.3711561319009919 0.4805347093668441 0  0.4094222350527067 0.474259492294858 0  0.3900559123655645 0.4400849522848927 0  0.424236947936217 0.4325405123406438 0  0.4064287970134219 0.3999026750146239 0  0.4371383646794741 0.3844169742052302 0  0.3741478846865309 0.4046214793161597 0  0.4157452357558893 0.362638066396075 0  0.4455239949225304 0.6297848275992342 0  0.4682939457355127 0.6020564119211513 0  0.4851105682636981 0.6323175429868974 0  0.5016044241031735 0.6044140710570786 0  0.5174258041298937 0.6324760209264602 0  0.5341157370028031 0.6042772737843457 0  0.549428792193844 0.6317742868979427 0  0.5663950616094867 0.6036191397275509 0  0.5818965490985215 0.6328330739537635 0  0.5989708227956246 0.5946039275969689 0  0.584922072275309
[...]
<PointData  Scalars="u"> 
<DataArray  type="Float64"  Name="u"  format="ascii">2.0293823989264815e-18  -2.3735303987183424e-18  -6.8125058528616985e-18  -6.4972015740039379e-18  2.9361318992472792e-19  -1.0446896685608907e-19  2.9848982130430535e-19  1.6039351985744136e-19  -1.2369824669177534e-01  -1.2331957168305301e-01  -1.2380831829296315e-01  -1.2431899022766926e-01  4.7719969488968429e-02  -5.8803692340300032e-18  3.9192219681943331e-18  -3.0316847973299767e-17  -2.1491362439339672e-17  7.6056512615674255e-18  -2.0194953435794199e-17  -2.9304071865423016e-17  -3.1948967914986271e-17  2.4700255713682590e-17  -6.1926412095497527e-17  -4.4876855836685192e-17  9.9107915426666668e-18  -1.5464601002069125e-17  -3.3986361500961668e-18  2.4988617650497131e-18  -8.0027487391957937e-18  3.7854709020964998e-18  -1.7096708022819604e-19  -3.7219061710307828e-19  -3.2880277582748837e-18  -5.8524684815134540e-19  -5.5850128132604919e-18  1.1725538318820288e-17  -1.4916908275996044e-18  -4.6161694554257423e-18  -2.5381311984919339e-17  -1.3465863338104385e-17  1.3668927240269672e-18  -2.2152673391323811e-17  7.2233731826568774e-18  1.5532775529764289e-17  -7.7692192221057171e-18  -1.0693231256854932e-17  -2.4292442446744712e-17  4.0105333686938406e-18  -1.5922096340156722e-17  -3.3447268634619781e-18  -7.0745871665624247e-19  5.7405168241272366e-18  2.1619186360930408e-17  -1.0640540699717797e-17  -8.1815320972129307e-18  -6.8160919208181093e-18  -1.4093205057455298e-18  -4.1104979162154692e-17  -4.9256035569834476e-18  -7.3976181582824280e-18  -5.8705418971016961e-18  -4.8708085463382065e-18  -3.8656475565485605e-17  -4.2936691248105882e-18  -2.5345626109571123e-17  -4.3846139684114477e-18  3.7116952811707606e-18  -2.8874037841840604e-18  8.1784238501252828e-18  -2.7918998317851092e-18  5.6873872755339645e-18  1.7500165836433971e-17  -1.8506440345229285e-17  -4.1765095061560533e-18  -6.5465763005788615e-18  5.1823539785400964e-18  -6.8332122557135236e-18  -2.4289440873361462e-17  2.8351985866099387e-17  -5.0341143704475792e-17  -1.4800957487945187e-17  -3.7138808691158956e-18  -6.3752516636937994e-18  -1.0122145960545604e-17  -1.0138622547702858e-17  -5.0881693444271592e-17  -1.0263708588918354e-17  -9.1204651202871150e-18  1.6310391124683573e-17  1.2118555436486084e-19  -6.5490950342220635e-19  2.9573236779138177e-20  2.5531701606892242e-19  -2.7815123738249440e-18  -3.6164140037303002e-18  1.7528896145295418e-19  -1.9434456445699368e-18  -5.3836517139351500e-18  -1.5604693601919000e-18  -1.0336048175276084e-19  -5.9405585813950018e-18  -4.8490834938371985e-18  -5.7354238479133625e-19  -6.3672373204196736e-19  -1.7099308096467001e-18  -5.4342735453741396e-19  -2.0284848714793071e-19  3.5003828400785546e-20  1.8642219033245744e-19  -5.2532092153380004e-20  2.1918085620583830e-19  5.2936854180382374e-20  8.6022315769645829e-20  1.4449420539974058e-19  -1.2842425459702677e-19  -5.1474012473883148e-19  -2.9032163212163951e-19  1.4503573073256721e-18  1.0734638443862284e-18  -1.8860336895480592e-18  -3.4222217993421148e-18  -1.6541108722832010e-18  -7.7141896287397207e-19  -2.1562158827615727e-18  5.9452297703131994e-19  2.1335431719837784e-18  -5.2335589502401392e-19  -2.3672179434518889e-18  -2.3214488373144988e-18  -9.1254716778646356e-19  -9.2879735766665145e-19  -1.4771761990353211e-18  -2.0483646300878061e-19  -5.9900925740977276e-19  -1.6501411274037055e-19  -1.5385063869418337e-19  -8.3259031380133595e-19  1.2916881807177585e-18  2.0330903074539374e-18  -1.0240713317420636e-18  -1.6328987517893865e-18  -3.0729554781017181e-19  -1.3679446477264350e-18  -4.2429285351671102e-18  -9.3069985162804033e-19  -9.0448466068188519e-19  -4.5168232730541113e-19  -1.8748583324827141e-18  -3.7725998919395817e-18  -2.8451876817580392e-18  -7.4537966460907971e-19  2.1638942814703097e-20  -5.1697440011204864e-20  1.7705860084402402e-19  6.9389430123283750e-19  -1.6049971143667335e-19  -9.4414743185414686e-19  -8.9760163613867105e-20  -1.9108673277696347e-19  -8.2954508334202766e-19  1.1241038657635810e-18  1.3481213346953214e-18  -1.6699847575176693e-18  1.0987863561471476e-19  1.0140479787125311e-18  4.0764232703879965e-20  -1.7271904066437846e-18  -6.6475737615091400e-19  7.8705353762786227e-19  -4.2980108898360366e-18  -3.5592420923703741e-18  -4.0607058786168905e-19  -1.2393087043699612e-18  -1.3466483628102704e-18  -3.3367514647201451e-18  -2.7838252034211291e-18  -1.3112409825561366e-18  -6.8871336071492401e-19  1.4334162342205204e-18  4.1980792040075039e-19  -3.8121827389475238e-19  -1.2478856205586686e-01  -1.2377465519478456e-01  -1.2097472644883173e-01  -1.1740894337762138e-01  -1.1404259642093861e-01  -1.1139635183825058e-01  -1.0985355373509084e-01  -1.0918931899235135e-01  -1.0977054043580460e-01  -1.1138678254604482e-01  -1.1385981709373401e-01  -1.1710010755668579e-01  -1.2060803415090771e-01  -1.2351764340328900e-01  -1.2445817587116237e-01  -1.2534311273294629e-01  -1.2523132643271459e-01  -1.2310236122909385e-01  -1.2007135643659540e-01  -1.1694460993854439e-01  -1.1436101982706820e-01  -1.1229132403597475e-01  -1.1083864319533057e-01  -1.1006165236194637e-01  -1.0979436193646762e-01  -1.1006578626838187e-01  -1.1097732360098037e-01  -1.1239965908462622e-01  -1.1471023438972477e-01  -1.1740718577261780e-01  -1.2055304193820354e-01  -1.2357468776392272e-01  -1.2575669584132998e-01  -1.2585294105321879e-01  -1.2488458946388546e-01  -1.2404632828732837e-01  -1.2133062666279287e-01  -1.1784279522953418e-01  -1.1454411366168946e-01  -1.1197293918966730e-01  -1.1038168466551707e-01  -1.0984631086410426e-01  -1.1034910323063739e-01  -1.1191294944863486e-01  -1.1457633985300335e-01  -1.1802078528664772e-01  -1.2158222264927515e-01  -1.2442002016452933e-01  -1.2535482058855713e-01  -1.2644345337281723e-01  -1.2636791528537911e-01  -1.2426314811719838e-01  -1.2123781138865175e-01  -1.1813907347529941e-01  -1.1543814869214813e-01  -1.1315465357230167e-01  -1.1176232356646179e-01  -1.1084103202361263e-01  -1.1050927115591302e-01  -1.1077511798189520e-01  -1.1157856512599604e-01  -1.1303130431602745e-01  -1.1506481146897743e-01  -1.1765228314857015e-01  -1.2074487022412303e-01  -1.2371940718709963e-01  -1.2575472155173523e-01  -1.2577937860834473e-01  -7.7674862291609276e-02  -7.2388184596594296e-02  -7.8227864734536759e-02  -7.2614702369090428e-02  -7.8163883042854487e-02  -7.5807745418071185e-02  -7.8327394062295108e-02  -7.4491264563340862e-02  -6.9468018992352110e-02  -7.0308884708663130e-02  -6.8157541031997310e-02  -6.9261069652770332e-02  -6.8529601030609164e-02  -6.8535685143815792e-02  -8.2234062537728719e-02  -6.3987347943298925e-02  -7.7395934018540807e-02  -7.8734519251548146e-02  -6.7647007197783660e-02  -8.3399764532927065e-02  -8.4939296218520602e-02  -8.4485001028362205e-02  -8.7017155432035906e-02  -8.6312916069339357e-02  -9.0849630608384496e-02  -8.9252419092537560e-02  -9.2335534624374965e-02  -9.1975981926529171e-02  -8.2475112853492516e-02  -6.1278494247530985e-02  -5.5129071200094373e-02  -3.9199705080992416e-02  -3.0963801255495072e-02  -1.5992337107389860e-02  -6.2575491070111112e-03  4.5107203522504356e-03  -2.9541718944423347e-02  1.6463780893173824e-02  2.3197520564629526e-02  2.5120653155658495e-03  1.8058463230086023e-02  -5.5073266211745396e-03  3.6366271701484391e-03  2.4563838291197727e-02  7.7220008115093716e-03  2.1978447567122236e-02  1.1621961107616560e-03  5.9170660045971390e-03  -1.4414133987581738e-02  -1.5160613472858143e-02  -7.7493747995770808e-04  1.9751826670648235e-02  4.3552001915362903e-03  2.1239756576345747e-02  3.6417340558395346e-03  1.7990455140695086e-02  -1.3139264835017855e-03  9.4580899524738960e-03  -1.2641384629988950e-02  -3.6135185975978571e-04  1.9514599935852688e-02  2.0660758339123074e-03  1.8387005515873165e-02  -1.7763555867347305e-02  -2.2192888203582131e-02  -3.0967871059355362e-02  -2.7799244385102746e-02  -2.2141551147315551e-02  -3.4367176611098109e-02  -1.3383743140215050e-02  7.3547582350000883e-03  -5.0049669706443763e-02  -3.6825347619791317e-02  -2.4645597155576373e-02  -2.9963289800538726e-02  -1.7369154626985579e-02  9.5965080581632972e-03  -2.0530972210024891e-02  3.6679575479947055e-03  2.7610047785745353e-02  1.4649098702592293e-02  -5.6701889887099330e-03  -8.9585013318117638e-04  2.3683299490516681e-02  2.4215161482126608e-03  -1.6736780311067907e-02  -1.7872816480528127e-02  -5.4198654381315452e-03  -3.6004794080282849e-02  -4.1788753755510874e-02  -5.4824336127525304e-02  -5.5189873936696020e-02  3.3675845089318465e-02  -4.3080737746089115e-02  -4.0103594260899322e-02  -4.8403247894469779e-02  -3.4792868169444692e-02  -5.8444533914969871e-02  -5.9589108674347697e-02  -4.8867782341365469e-02  -2.3388111334121973e-02  -4.6120847743328801e-02  -5.6035767886930155e-02  -3.8868581141289979e-02  -1.6057059034870761e-02  -3.4988602769272500e-02  -3.8452981271131906e-02  -2.1494098044509340e-02  -4.0218609410173953e-02  -5.3438185390186230e-02  -5.6676910735728038e-02  -4.7811702469734249e-02  -5.0703755993562236e-02  -4.0940246611574381e-02  -6.0280746780733037e-02  -2.1341526465744200e-02  3.7433968762264770e-02  -5.7232578645006991e-02  3.7431666180978290e-02  -4.3570529369987131e-03  -3.1255330002039651e-02  -9.0697023982993421e-03  -3.2943889088145488e-02  -5.0995336397440756e-02  -5.4527893223932034e-02  -4.0497848696193529e-02  -2.0536622475763804e-02  -3.7378500214181654e-02  -4.5476633249831123e-02  2.6298878534966597e-02  -6.8103487746957278e-02  -7.1396408429225205e-02  -2.4392561939709057e-02  -4.5869187583659286e-02  -4.0662694130591578e-02  -2.8561464233577884e-02  -3.9517787309577210e-02  -5.5938165382356055e-02  -4.0836806876074654e-02  -5.2369893087670677e-02  -5.8811302842803531e-02  -6.6218918018384212e-02  -7.5386408433368732e-02  -8.1223715976906932e-02  -5.0374335101896248e-02  -6.5358543206474620e-02  -6.8623259513004159e-02  -6.6130079524054336e-02  -7.8212306010944921e-02  -8.5683479731667359e-02  -7.1190751880497727e-02  -4.7307951578871861e-02  -2.5260682760663913e-02  -7.8564897913117909e-02  -7.4293185482126128e-02  -6.8068133323680100e-02  -8.2911216186975986e-02  -6.6527672506932103e-02  -6.6510153316619955e-02  -7.4504865944559615e-02  -8.5953516075591721e-02  -6.7914389461539687e-02  -6.8621759518456296e-02  -7.6655780118827746e-02  -5.7738569652942696e-02  -7.2630481371949912e-02  -5.4010457029688333e-02  -7.0666421204156921e-02  -8.0245412589536685e-02  -8.7439415406003196e-02  -7.7277738503664595e-02  -5.9495811648561818e-02  -3.8566283228498380e-02  -6.8764693564656962e-02  -7.4639436059680944e-02  -6.0272714112221799e-02  -9.1283838589612393e-02  -9.1983635627308810e-02  -9.2106123332663561e-02  -9.1988976087273744e-02  -7.2002999967408096e-02  2.8637978407398325e-02  4.0321725076099671e-02  -4.9558921002783710e-02  -7.6006726153838147e-02  -7.7843333081964575e-02  -6.8934797149021620e-02  -8.6904137522925154e-02  -6.9148639133429654e-02  -6.3943768891439767e-02  -4.4123516221868227e-02  -2.8524229223662524e-02  -6.7868917345363378e-02  -2.9117856604618384e-02  3.5168958725127292e-02  3.4524364264209101e-02  1.1792620531563347e-02  -4.8885349361990751e-02  -6.2847317832149141e-02  -4.6749965800935427e-02  -5.1570425725698005e-02  -4.6231857839484747e-02  -7.1240184259014128e-02  -7.1090875006615595e-02  3.1971788642111310e-02  -7.1299910008158732e-02  -4.9213343180162794e-02  -5.2868366895701714e-02  -1.8750071058440166e-02  -6.3641317572883882e-02  -2.3688680409462457e-02  1.1355970982884765e-02  -7.3672794477208411e-02  4.2886016099282387e-02  -1.0120876101950546e-02  -8.0284901586229140e-02  -2.6267420047853051e-02  -4.7267370525013404e-02  -5.1175729260938885e-02  2.9335120767143265e-02  -7.2489452883869043e-02  -5.7429652146035404e-02  -4.8117207461967737e-02  4.4607517961970461e-02  -5.4157403689410119e-02  -4.1552983106962947e-02  4.0511563278623257e-02  -1.7642104005702999e-02  -4.5212265311329942e-02  4.4358185178816130e-02  -2.3710534493512611e-02  -5.8513237945250145e-02  -6.1654967623156302e-02  -3.5889271959435441e-02  -1.5668912512464196e-02  -4.7254259108248903e-02  -7.4885372196213981e-02  -2.5951750557781025e-02  -9.7483344804016617e-02  -9.7917438341181620e-02  -9.7868049322748854e-02  -9.8433857327152346e-02  -5.6720542675971437e-02  -7.0999686648209479e-02  -5.8896283867872157e-02  -6.7261543650272329e-02  -5.0111656835738504e-02  -1.1431767192619900e-02  -6.6828501392652576e-02  -6.0743433679940374e-02  -3.2262743768682441e-02  -5.9362037758029246e-03  -1.5915384337847054e-02  -3.7295431130633097e-03  -6.1605351477965052e-02  -5.7206803666591463e-03  -4.4710670321117099e-02  -1.6320292522324948e-04  4.3217970916492772e-02  -4.0197292555666675e-02  -1.7463010573766095e-02  -3.2061616942035860e-02  -4.7852272858434970e-02  -1.2162324719283954e-02  -5.8627833210827740e-03  3.6158147202145441e-02  -7.6755316604435131e-02  -1.3385188149940577e-01  -1.3400445392478930e-01  -1.3989243987217539e-01  -1.4842332758385143e-01  -1.4041742527994444e-01  -1.4960518793611660e-01  -1.3312127113660019e-01  -1.3887629570495133e-01  -1.3321068464679181e-01  -1.3939393179920759e-01  -1.4834690301752448e-01  -1.4779669527969697e-01  -7.1264332896155913e-02  -6.2591634598383461e-02  -7.5690370110584396e-02  -6.5689366639722330e-02  -1.3472218212927123e-01  -1.4587301933791455e-01  -1.4618189053865560e-01  -1.3516817472440446e-01  -1.5275461969850407e-01  -1.5844800440569790e-01  -1.3712370191360801e-01  -1.3629662964868844e-01  -1.4843264923355590e-01  -1.6504413445470914e-01  -1.7181160364910178e-01  -1.6971361010573735e-01  -1.7880519256496430e-01  -1.7815746918814909e-01  -4.3489991892754959e-02  -4.0757112403337070e-02  -4.2489142258351709e-02  -4.1797200742825044e-02  -8.0479924609541481e-02  -7.9722021939056767e-02  -8.2585385303942188e-02  -1.8197700043951109e-01  -1.8097528462832804e-01  -1.7493305899946035e-01  -1.6969845148636564e-01  -8.4619565623308649e-02  -8.5640850215084233e-02  -8.3898721973124119e-02  -7.8575619829391818e-02  -8.2064434763854513e-02  -7.8720462757879334e-02  -9.2079593859628467e-02  -4.9300852769312571e-02  -1.7497119316488399e-01  -1.7094486990066909e-01  -5.7087555935503798e-02  -4.9104626765397723e-02  -5.6376011947947335e-02  -1.5285763053907281e-01  -1.5709389108541419e-01  -1.6555111376847256e-01  -1.7156754670963750e-01  -1.7599391748557333e-01  -1.7957849718992974e-01  -1.7570542423952326e-01  -1.8009518370584202e-01  -1.7784815739430040e-01  -1.7951639353420651e-01  -1.5340359266188117e-01  -1.5826209082472517e-01  -1.6618484877063400e-01  -1.7214773997000518e-01  -1.6837073519826928e-01  -1.7659780027904320e-01  -1.8014331438521319e-01  -1.8073061208487590e-01  -1.7844751581331014e-01  -1.8016870022860954e-01  -1.4197252409111905e-01  -1.5231944082838525e-01  -1.5790657626305724e-01  -1.6456611966437196e-01  -1.7135159660258426e-01  -1.6917591889741010e-01  -1.7807518062132952e-01  -1.7747081821199567e-01  -1.8132158613141061e-01  -1.8046715449342904e-01  -1.3379425415623467e-01  -1.3360722945405035e-01  -1.3932026396357328e-01  -1.3992544451193503e-01  -1.7852173608417676e-01  -1.7699441250694878e-01  -1.7455296310266077e-01  -1.7835552920194608e-01  -1.7651541817972827e-01  -1.7451142676960182e-01  -7.9364720144085646e-02  -1.7525966894699951e-01  -1.7764131521743051e-01  -1.7874279282646563e-01  -1.7595047428772836e-01  -1.7733626116595877e-01  -1.8105632725811829e-01  -1.4240269303737102e-01  -1.6552019710421967e-01  -1.6529235368509804e-01  -6.4469198412270695e-02  -6.0729401812442768e-02  -6.4318414103171656e-02  -1.6699430010811692e-01  -1.6814942782995523e-01  -1.6760728139914688e-01  -1.6444877851443940e-01  -1.6810921030323500e-01  -1.7053154378247870e-01  -1.6843672621858527e-01  -1.7082888412155259e-01  -1.6175765501499867e-01  -1.6935077480588409e-01  -1.5550436738811904e-01  -1.6385998101449339e-01  -1.4849699832522170e-01  -1.5542133165071534e-01  -1.6126588804786438e-01  -1.6792177347357182e-01  -1.5425112306560781e-01  -1.6099815118775601e-01  -1.4663911576623476e-01  -1.5396341595261812e-01  -1.3945367057866451e-01  -1.4801598929627863e-01  -1.3341098410605287e-01  -1.4371020663433376e-01  -1.2965299753542631e-01  -1.4174591634992892e-01  -1.2821076262142195e-01  -1.4214760114089270e-01  -1.4083022722693914e-01  -1.4917420000058268e-01  -1.3452898629850096e-01  -1.4479413462604035e-01  -1.3065365291805667e-01  -1.4276755951520217e-01  -1.2899497495533668e-01  -1.4305025638414950e-01  -1.6657537992980651e-01  -1.6815736831051545e-01  -1.6774779713891697e-01  -1.6851296601160864e-01  -1.6699179263977121e-01  -1.6785361978078897e-01  -1.3000939272537673e-01  -1.4501675549507811e-01  -1.3341811414071478e-01  -1.4959523718248088e-01  -1.3843407766054036e-01  -1.3065856781417323e-01  -1.4575852508395160e-01  -1.3384689433899552e-01  -1.5032624232226541e-01  -1.3904369252408241e-01  -1.8009208431523288e-01  -1.7382841784797812e-01  -1.7253102073205973e-01  -1.5287618100731495e-01  -1.5798680015950697e-01  -1.5192703135388580e-01  -1.5696753106283332e-01  -1.4726464140673687e-01  -1.4302141369674595e-01  -1.4601353931569253e-01  -1.4310898702472910e-01  -1.5019298353339477e-01  -1.0789417500388068e-01  -1.4893899262559823e-01  -1.5367912167184761e-01  -1.4574720965025142e-01  -1.5045022145090026e-01  -1.0881306425177405e-01  -1.5575584803765749e-01  -1.4425438051489958e-01  -1.5972162711640425e-01  -1.4974332074686791e-01  -1.5859548219171771e-01  -1.5066828859698236e-01  -1.5147320820570434e-01  -1.4712845779714828e-01  -1.6167033764731831e-01  -1.4784391012257153e-01  -1.6287721899408711e-01  -1.2172503095819896e-01  -1.7183501556298303e-01  -5.1407922088644524e-02  -1.6376799994623989e-01  -1.7383846746777593e-01  -1.2286283786890811e-01  -1.4485115720243788e-01  -1.5638667323140176e-01  -1.2149402457677874e-01  -1.6100415471695831e-01  -1.6168012521690295e-01  -1.5955841158397160e-01  -1.6942439346488056e-01  -1.6497309107923466e-01  -1.7103001838087148e-01  -1.6666801926502489e-01  -1.6554935474458091e-01  -1.6132447627530494e-01  -1.7105222787597063e-01  -1.6140683485940241e-01  -1.5767281797145144e-01  -1.5694760587963458e-01  -1.5464877638620106e-01  -1.5419739167097962e-01  -1.5308920099299150e-01  -1.5259553305811327e-01  -1.5823444043713428e-01  -1.5803840127123669e-01  -1.4750711843753836e-01  -1.6256874193491547e-01  -1.5900334263961088e-01  -1.5559210342392860e-01  -1.2451310236712594e-01  -1.5393504061984303e-01  -1.4258158235420526e-01  -1.4439636235618783e-01  -1.4351272227510228e-01  -4.7007534914246731e-02  -5.4757972038991520e-02  -5.0909699129107505e-02  -1.5609616513786340e-01  -1.5065074466955061e-01  -1.7728870599824437e-01  -1.6713899380338851e-01  -1.7252158651166444e-01  -1.3300746052854348e-01  -1.3288887753403048e-01  -1.3627874576271223e-01  -1.5700231412928065e-01  -1.6465018242693402e-01  -1.6816895368786977e-01  -1.6401689991616514e-01  -1.5452592636075654e-01  -1.5800811703309664e-01  -1.5706026636649653e-01  -1.5490875669087650e-01  -1.5243726523255627e-01  -1.5360050966056363e-01  -1.4527770320638042e-01  -1.5152730652262922e-01  -1.5071450709239667e-01  -1.5255434153821659e-01  -1.4954149324822830e-01  -1.5505202231882070e-01  -1.4765362284961817e-01  -1.5725170845041025e-01  -1.5560813193976508e-01  -1.6083938394875305e-01  -1.5913507927084330e-01  -1.6626808931876494e-01  -1.5956129393229396e-01  -1.7166397074070092e-01  -1.5681562098963506e-01  -1.7038920704427757e-01  -1.5172943448926740e-01  -1.5730337524112045e-01  -1.4845468016168870e-01  -1.6702655263870425e-01  -1.6433159671454506e-01  -1.4622682400325288e-01  -1.4264167568302497e-01  -1.5068534061830796e-01  -1.4740400373832821e-01  -1.6522472843279543e-01  -1.4907943393682924e-01  -1.6382615548660648e-01  -1.4225597786782021e-01  -1.4453487091808093e-01  -1.5282105127901471e-01  -1.6716086348814196e-01  -1.4515738038449405e-01  -1.6321955878405994e-01  -1.4723797697771340e-01  -1.1245130548552108e-01  -1.1776113280260134e-01  -1.4354532126781835e-01  -1.549203134584539