<?xml version="1.0"?>
<VTKFile type="UnstructuredGrid"  version="0.1"  >
<UnstructuredGrid>
<Piece  NumberOfPoints="1297" NumberOfCells="2496">
<Points>
<DataArray  type="Float64"  NumberOfComponents="3"  format="ascii">0 0 0  0 1 0  1 1 0  1 0 0  1.1 -0.1 0  -0.1 -0.1 0  1.1 1.1 0  -0.1 1.1 0  0.3087248352232649 0.6638879203020546 0  0.308803480056428 0.3372858777448902 0  0.692894705836848 0.3371851820955751 0  0.6931049780525346 0.6633998250080908 0  0.5007340029007639 0.5004238648697609 0  0 0.9499999999997918 0  0 0.8999999999995836 0  0 0.8499999999996529 0  0 0.7999999999999998 0  0 0.7500000000003466 0  0 0.7000000000006934 0  0 0.6500000000010401 0  0 0.6000000000013869 0  0 0.5500000000017335 0  0 0.5000000000020587 0  0 0.4500000000018723 0  0 0.4000000000016644 0  0 0.3500000000014564 0  0 0.3000000000012483 0  0 0.2500000000010403 0  0 0.2000000000008322 0  0 0.1500000000006241 0  0 0.100000000000416 0  0 0.05000000000020799 0  0.04999999999989965 0 0  0.09999999999981467 0 0  0.1499999999997036 0 0  0.1999999999995579 0 0  0.2499999999994121 0 0  0.2999999999992664 0 0  0.3499999999991206 0 0  0.3999999999989749 0 0  0.4499999999988292 0 0  0.4999999999986943 0 0  0.5499999999988151 0 0  0.5999999999989468 0 0  0.6499999999990784 0 0  0.69999999999921 0 0  0.7499999999993417 0 0  0.7999999999994734 0 0  0.8499999999996051 0 0  0.8999999999997368 0 0  0.9499999999998684 0 0  1 0.04999999999989965 0  1 0.09999999999981467 0  1 0.1499999999997036 0  1 0.1999999999995579 0  1 0.2499999999994121 0  1 0.2999999999992664 0  1 0.3499999999991206 0  1 0.3999999999989749 0  1 0.4499999999988292 0  1 0.4999999999986943 0  1 0.5499999999988151 0  1 0.5999999999989468 0  1 0.6499999999990784 0  1 0.69999999999921 0  1 0.7499999999993417 0  1 0.7999999999994734 0  1 0.8499999999996051 0  1 0.8999999999997368 0  1 0.9499999999998684 0  0.9499999999997918 1 0  0.8999999999995836 1 0  0.8499999999996529 1 0  0.7999999999999998 1 0  0.7500000000003466 1 0  0.7000000000006934 1 0  0.6500000000010401 1 0  0.6000000000013869 1 0  0.5500000000017335 1 0  0.5000000000020587 1 0  0.4500000000018723 1 0  0.4000000000016644 1 0  0.3500000000014564 1 0  0.3000000000012483 1 0  0.2500000000010403 1 0  0.2000000000008322 1 0  0.1500000000006241 1 0  0.100000000000416 1 0  0.05000000000020799 1 0  -0.1 1.05000000000004 0  -0.1 1.000000000000079 0  -0.1 0.9500000000001624 0  -0.1 0.9000000000003032 0  -0.1 0.850000000000444 0  -0.1 0.8000000000005848 0  -0.1 0.7500000000007256 0  -0.1 0.7000000000008665 0  -0.1 0.6500000000010508 0  -0.1 0.6000000000012352 0  -0.1 0.5500000000014196 0  -0.1 0.500000000001539 0  -0.1 0.4500000000014195 0  -0.1 0.4000000000013 0  -0.1 0.3500000000011588 0  -0.1 0.3000000000010178 0  -0.1 0.2500000000008986 0  -0.1 0.2000000000007579 0  -0.1 0.1500000000006174 0  -0.1 0.1000000000005272 0  -0.1 0.05000000000040083 0  -0.1 2.671196597248127e-13 0  -0.1 -0.0499999999998666 0  -0.0500000000000906 -0.1 0  -1.730560139634463e-13 -0.1 0  0.04999999999975802 -0.1 0  0.09999999999961506 -0.1 0  0.1499999999994613 -0.1 0  0.199999999999302 -0.1 0  0.2499999999991446 -0.1 0  0.2999999999990088 -0.1 0  0.3499999999988296 -0.1 0  0.3999999999986936 -0.1 0  0.4499999999985143 -0.1 0  0.4999999999984002 -0.1 0  0.5499999999985247 -0.1 0  0.5999999999986493 -0.1 0  0.6499999999987955 -0.1 0  0.6999999999989417 -0.1 0  0.7499999999990659 -0.1 0  0.7999999999992116 -0.1 0  0.8499999999993573 -0.1 0  0.8999999999994526 -0.1 0  0.949999999999584 -0.1 0  0.9999999999997226 -0.1 0  1.049999999999861 -0.1 0  1.1 -0.0500000000000906 0  1.1 -1.730560139634463e-13 0  1.1 0.04999999999975802 0  1.1 0.09999999999961506 0  1.1 0.1499999999994613 0  1.1 0.199999999999302 0  1.1 0.2499999999991446 0  1.1 0.2999999999990088 0  1.1 0.3499999999988296 0  1.1 0.3999999999986936 0  1.1 0.4499999999985143 0  1.1 0.4999999999984002 0  1.1 0.5499999999985247 0  1.1 0.5999999999986493 0  1.1 0.6499999999987955 0  1.1 0.6999999999989417 0  1.1 0.7499999999990659 0  1.1 0.7999999999992116 0  1.1 0.8499999999993573 0  1.1 0.8999999999994526 0  1.1 0.949999999999584 0  1.1 0.9999999999997226 0  1.1 1.049999999999861 0  1.05000000000004 1.1 0  1.000000000000079 1.1 0  0.9500000000001624 1.1 0  0.9000000000003032 1.1 0  0.850000000000444 1.1 0  0.8000000000005848 1.1 0  0.7500000000007256 1.1 0  0.7000000000008665 1.1 0  0.6500000000010508 1.1 0  0.6000000000012352 1.1 0  0.5500000000014196 1.1 0  0.500000000001539 1.1 0  0.4500000000014195 1.1 0  0.4000000000013 1.1 0  0.3500000000011588 1.1 0  0.3000000000010178 1.1 0  0.2500000000008986 1.1 0  0.2000000000007579 1.1 0  0.1500000000006174 1.1 0  0.1000000000005272 1.1 0  0.05000000000040083 1.1 0  2.671196597248127e-13 1.1 0  -0.0499999999998666 1.1 0  0.2991133712695987 0.6507190652660421 0  0.2876954411153873 0.6331006608861041 0  0.277700653594135 0.6132657997860238 0  0.2698294875400104 0.5917383458266526 0  0.2640498862644914 0.5693652476007146 0  0.2600938627766706 0.5466114946342394 0  0.257740162696613 0.5236297187040684 0  0.2570072876010305 0.5005059703619351 0  0.2578057682146087 0.4773978529292881 0  0.2601416518340223 0.4543880228556411 0  0.2641084214086982 0.431602828523518 0  0.2699315308900925 0.4092585558390158 0  0.2778143836922189 0.387836829212799 0  0.287846212309156 0.3679804143990609 0  0.2992883586761253 0.350327125391401 0  0.3231992249232827 0.321994050350085 0  0.3395354889737737 0.3073537462228266 0  0.3579874783948684 0.2942721907063801 0  0.3778043681685866 0.2833377379382682 0  0.3981984745717311 0.2745389359191233 0  0.418782665627758 0.2676271404472372 0  0.4392812471449644 0.2623905931929247 0  0.4598026294628264 0.2586867183444887 0  0.4803460472248909 0.2564639056168097 0  0.5008877979123015 0.2557172222578798 0  0.5214309145429102 0.2564430438633108 0  0.5419853019332947 0.258636945692836 0  0.5625736165224263 0.2623174215727153 0  0.5831226479311311 0.267530001449354 0  0.6038465387174075 0.2744510381832568 0  0.6243135511773813 0.2832906249005598 0  0.6440005060237484 0.2942048981056933 0  0.6622918016766527 0.3072318776217981 0  0.678512135245487 0.3218014854673524 0  0.7024937654957778 0.3502907969261153 0  0.7136863707220426 0.3677493055316373 0  0.7236140930174781 0.3876374384161986 0  0.7313835854029587 0.4091500725589947 0  0.7370742485851924 0.4315083574244771 0  0.7409067100452997 0.4542637460370336 0  0.7430729956614279 0.477185928339199 0  0.7436806267775296 0.5001539222485734 0  0.7428256949705544 0.5230790714927912 0  0.7405822593623482 0.5458661630337153 0  0.7368291440563696 0.5685273916240383 0  0.7312917434009876 0.5908830881094482 0  0.7236782834565124 0.6125438730934587 0  0.7138609782521971 0.6325598580487689 0  0.7027086511906825 0.650140010214726 0  0.6788532017587441 0.6787256824868184 0  0.6626509851307895 0.6933527720923849 0  0.6444164315674991 0.7064425270808381 0  0.6246989464067632 0.7174491808216974 0  0.6041749333615954 0.7263754976922677 0  0.58336740602277 0.7333574002261705 0  0.5627508185734509 0.7385976402588507 0  0.5421230898450092 0.7422866241795258 0  0.5215674417898053 0.7444745370564435 0  0.5010625748329008 0.7452011649831828 0  0.4805371404190373 0.7444676026697891 0  0.4599797923190642 0.742259216166115 0  0.4394414933505145 0.7385808488962355 0  0.4188235571868789 0.7333614934700682 0  0.3981045917450194 0.7264356743607304 0  0.3776701724799756 0.7176344796780085 0  0.3578597102940033 0.7067021782100451 0  0.339442576776948 0.6936277882786558 0  0.323104354986316 0.6790443168354043 0  0.389208389779449 0.305657456075728 0  0.2862366354146257 0.4427330609863644 0  0.3891501480757169 0.6953046673035475 0  0.2861845749801558 0.5583379316195626 0  0.7121249923002178 0.5798673310970113 0  0.5928016169275341 0.703693847665952 0  0.6118948391149923 0.3047497741856659 0  0.7165177774227492 0.4417978129957509 0  0.7197231210777635 0.5110998657223019 0  0.5512994228052992 0.28653015329401 0  0.4507513251773099 0.2889495427746196 0  0.4496753575348328 0.7123458013324747 0  0.5315986457084075 0.7157977930138077 0  0.2816762845087935 0.4888865510353654 0  0.29529216973279 0.3979723003268256 0  0.4908588239118027 0.2873873820471328 0  0.3009653435909576 0.6016635354575701 0  0.6995919732085821 0.3957315752685858 0  0.490837296189839 0.7171082858831272 0  0.6329183909189661 0.6867828804358636 0  0.3493883165151429 0.3270496495464061 0  0.6526517516638393 0.3285110557834385 0  0.3498368799608272 0.6766048000247797 0  0.6955231583360855 0.625385464082545 0  0.3127332486548117 0.3557337383409279 0  0.3145978380935885 0.6444630259781164 0  0.6716827589241546 0.6655466154086807 0  0.6894688298333085 0.3551982185716647 0  0.3693185270305325 0.6866160964551523 0  0.3788762451078536 0.6659966994163153 0  0.399078842122599 0.6724676887055564 0  0.3872332351591521 0.6438667049414833 0  0.4086887998233479 0.6489770379702993 0  0.3949837450922768 0.6184055552804428 0  0.4211097595902253 0.6227613264864075 0  0.404462634497389 0.5873129670935867 0  0.368700819904111 0.6126082326433198 0  0.4366052931988162 0.5901649985839286 0  0.4165676313914726 0.5507769056101243 0  0.3777563110443137 0.5545165309827068 0  0.3933200735955089 0.5150834376992244 0  0.3553007752269722 0.5167562555688735 0  0.3687125107173005 0.4821554375206385 0  0.4082774681363049 0.4760176430525975 0  0.3887062117367354 0.4429362391912728 0  0.4238262787485776 0.4354476349903201 0  0.4061154095481363 0.4037379739796457 0  0.4374730762765184 0.388374371553582 0  0.3731396394304032 0.4085720593097815 0  0.4161440384587669 0.3671784017043661 0  0.4461359988359576 0.6275486795529204 0  0.4689686893546188 0.6004403539706726 0  0.4861034660793618 0.6301889266531793 0  0.5027605941459552 0.6027981305497474 0  0.518720850154011 0.6303415008671887 0  0.5357380783255193 0.6026073497069225 0  0.5510286371815604 0.6295333056853725 0  0.568494772031469 0.6018054879652996 0  0.5837652835134022 0.6303292510431041 0  0.6017432248603617 0.592766221121438 0  0.5878925286645064 0.55
[...]
<PointData  Scalars="u"> 
<DataArray  type="Float64"  Name="u"  format="ascii">-1.3144564981884621e-18  -2.0711878780365103e-18  -5.6241010766170117e-18  -3.1434765331505616e-18  1.1896014049221773e-19  1.1147683707966305e-19  2.4299515071222797e-19  1.4792221233805323e-19  -1.2507835565370184e-01  -1.2548130225990856e-01  -1.2485126992042123e-01  -1.2450330141248164e-01  4.5557814065758692e-02  -1.1030737755353289e-17  -2.3056013760441518e-19  -2.7588974684114522e-17  -1.5340549879741094e-17  1.5081804024982985e-18  0.0000000000000000e+00  -1.9118501300691242e-17  -5.0103897431605825e-17  2.8149287515042855e-18  -9.1546191248839757e-17  -7.4956977591373614e-17  2.9367971183405785e-17  -2.3886688873185533e-17  -2.4690349815633788e-18  -9.9739325781098584e-18  -4.4211922701706105e-18  4.4488529798506899e-18  -3.2101603774953199e-18  1.8403616284341703e-18  6.0035852122985054e-18  -4.4555869931969935e-18  5.8060301194459176e-18  2.3197055622883465e-17  -1.4561074404518293e-18  1.6282058408561841e-17  -3.5442698240372384e-17  -2.4455979286515561e-18  4.9615732776857085e-18  -3.1467064567827528e-17  -3.4974748580971997e-18  3.1162181982849931e-18  -4.1107566099778523e-18  -2.0994256626239179e-17  -2.0250719272809019e-17  5.0615506400215214e-18  -3.6746491020348837e-17  2.0453696245125686e-19  5.5139898951574039e-18  -5.7097678474355078e-18  1.0479015514959538e-17  -1.0752499319897082e-17  -2.1868539590904108e-17  2.2616469727946438e-18  -2.3543540207424596e-17  -5.2539021862732880e-18  3.5797885141697263e-17  -8.6185687768940054e-18  7.6524729077549318e-19  1.5094880175202517e-17  -2.9950837659305420e-17  -2.0869326551731539e-17  -3.4369821420232497e-17  -4.4974615396026363e-17  1.0342670548111466e-17  -3.0115222118918399e-18  -4.0047103300367142e-18  -5.0019469362607581e-18  4.2623472116494205e-18  1.0332485030983465e-17  -1.4441894662823008e-17  -1.2419917742718482e-17  -2.4866330182936985e-17  1.1116250126604821e-17  1.3412090623342588e-18  -3.6069626407283820e-17  1.8800755902790528e-17  -5.1884726798512864e-17  -3.0682518609345832e-17  5.9932950679368526e-18  -4.6880084476188745e-18  -1.7707735560191955e-17  -8.1845905755240127e-18  -5.8926821332763671e-17  -2.9503292722761252e-17  5.4209057809380224e-19  2.4412994701328222e-17  2.1051385459786497e-19  -7.4099978592211587e-19  -5.0227841576893033e-19  -7.3595248378571401e-19  -1.9663187474545825e-18  -5.0658541857447152e-18  -3.7315102146238038e-20  4.7389608021571497e-19  -4.2584027115579617e-18  -3.0021875266402060e-18  -3.3220467709989619e-18  -8.0011599037925359e-18  -7.0811558084218724e-18  4.7536347960066374e-20  -2.2326398877114260e-19  -2.7358892954347201e-18  -1.4297776311519270e-18  -5.0383352913259932e-19  1.3737097506154772e-19  -2.0116554164987280e-20  -4.6312927662970812e-20  -3.0453307727228804e-21  -7.1873123560767385e-20  -1.6277838420371231e-19  1.5859743709645394e-19  4.3586091032233958e-19  -3.5828053363444959e-19  1.0618318525379313e-18  2.6600963534549494e-18  2.1037812368456487e-18  -2.7453212681394971e-19  -3.7651745888199239e-18  -8.5090602874621993e-19  -3.8195066265959623e-20  -3.3935601060412159e-18  -1.3480242766638982e-18  8.7161275626138428e-19  -7.8919548096338937e-19  -3.1076251652082459e-18  -1.9468926366888725e-18  -1.6064079601565916e-18  -3.1034746647990014e-18  -1.1572080262499069e-18  8.5259922887396173e-19  -2.4328222619160548e-19  -1.4992642821872495e-19  8.4168659670927917e-20  -6.9883913259717007e-19  -1.3448862767432781e-19  6.0138970333488638e-19  -1.9511841818551128e-18  -2.2027265832165856e-18  -8.6109137136784313e-19  -2.8855082412979490e-18  -3.6735014817238349e-19  4.1801653109125372e-18  -9.5265509758639567e-20  1.7802004222075008e-19  9.2703855295118590e-19  -2.7934270649173168e-18  -3.9408712744515551e-18  -3.8891694684991304e-18  -4.1475108872359672e-18  -3.5513026738025309e-19  4.8594033490242993e-19  -7.8785661267713818e-19  -6.4355320719367977e-19  -7.4395904981540881e-19  -6.7313067809650729e-20  -1.7176516948629196e-19  -6.3486005591189357e-19  7.0299042390916544e-19  9.8828069575597678e-19  -1.6631294407393431e-18  -1.2465710786951173e-18  -6.1806682387730484e-19  3.7138986853037596e-19  -5.8607832878242776e-19  -2.4223535804505668e-18  -8.7844753410326756e-19  -5.0677289140359352e-18  -4.8529153080457902e-18  1.2823281721948077e-19  -8.7038574077106545e-19  -1.8885267876861161e-18  -3.7198385247935760e-18  -3.7014099906448676e-18  -3.5102241280341632e-18  8.3635797852212674e-20  2.7517018475509117e-18  4.5066554479774962e-19  -4.3738464856132444e-19  -1.2476345206140529e-01  -1.2364723337918425e-01  -1.2183686653264009e-01  -1.1937827638634518e-01  -1.1691045737022565e-01  -1.1486805132539395e-01  -1.1366729633622946e-01  -1.1313489947106370e-01  -1.1370605078322193e-01  -1.1507871734358824e-01  -1.1703899423550418e-01  -1.1948926235542726e-01  -1.2201280766380271e-01  -1.2403114167944415e-01  -1.2520282388145906e-01  -1.2609234019996279e-01  -1.2583647226809302e-01  -1.2453536906541865e-01  -1.2243128959957605e-01  -1.2003287041053659e-01  -1.1789810362720662e-01  -1.1603156972140302e-01  -1.1459047311069720e-01  -1.1379118690679378e-01  -1.1348119524481973e-01  -1.1369119196274821e-01  -1.1450887762032128e-01  -1.1575418840357929e-01  -1.1775812953339904e-01  -1.1988412074011923e-01  -1.2214436624647386e-01  -1.2412703696965091e-01  -1.2537148121415664e-01  -1.2553038028214869e-01  -1.2435716182536370e-01  -1.2318518636671030e-01  -1.2122535869845548e-01  -1.1863202730229255e-01  -1.1606735347881156e-01  -1.1393819315903297e-01  -1.1254516222116955e-01  -1.1202970721039640e-01  -1.1240306798911809e-01  -1.1364333568153989e-01  -1.1572066247210117e-01  -1.1830738900081492e-01  -1.2088430311083789e-01  -1.2285469281313165e-01  -1.2401630572129788e-01  -1.2517488938563673e-01  -1.2492357331147566e-01  -1.2364469557394990e-01  -1.2157453733888365e-01  -1.1928050653595620e-01  -1.1707658876214949e-01  -1.1503499662921435e-01  -1.1377633884059905e-01  -1.1292951922298931e-01  -1.1265061607277688e-01  -1.1296056835400278e-01  -1.1381142843845218e-01  -1.1528415777755549e-01  -1.1715690344745555e-01  -1.1933482937838623e-01  -1.2176286018927397e-01  -1.2391439336551738e-01  -1.2524644117977857e-01  -1.2558419175980395e-01  -7.9749118652608350e-02  -7.5992278111086803e-02  -7.9134780360214249e-02  -7.5952878211112657e-02  -7.9098069982150368e-02  -7.6831841697217337e-02  -7.9755381807969788e-02  -7.6639602484908712e-02  -7.2127123520841954e-02  -7.3304845875895308e-02  -7.1425960301317995e-02  -7.1255069799773849e-02  -7.0342725478021645e-02  -7.2789133399130235e-02  -8.4005690874612626e-02  -6.7211866952002819e-02  -7.8713196549909714e-02  -7.9110323985275885e-02  -6.9588973889830347e-02  -8.2924029214533249e-02  -8.5856906902526745e-02  -8.4519181534170484e-02  -8.6877432247465899e-02  -8.5425703881155543e-02  -9.2097180820626345e-02  -8.9881158474609632e-02  -9.1677113286997194e-02  -9.2096780641947942e-02  -8.2740169155920890e-02  -6.2055068995099785e-02  -5.6278635696051675e-02  -4.0507714247231041e-02  -3.2609614077105498e-02  -1.7713285440081210e-02  -7.9324406590650393e-03  2.6623790129877900e-03  -3.1223595736138449e-02  1.4496576989235821e-02  2.1022701676105659e-02  1.7055460823707654e-04  1.5529520328921763e-02  -8.1441003882333756e-03  7.8071158780904126e-04  2.2092799292559136e-02  5.1444121921678538e-03  1.9491793823192136e-02  -1.1324747657017852e-03  3.4567179175165343e-03  -1.6787843308663369e-02  -1.7674646726130300e-02  -2.5300918362713733e-03  1.7823254709536752e-02  2.5463186009288983e-03  1.9393597714756381e-02  1.9558002335701998e-03  1.6292497882387114e-02  -2.7619768816165308e-03  8.0375022176372123e-03  -1.3809178955084574e-02  -1.4493295429847198e-03  1.7968391619107498e-02  5.8863934215342708e-04  1.6640725577871808e-02  -1.8742140549343200e-02  -2.3297047123152888e-02  -3.2377792566473072e-02  -2.9718361617753191e-02  -2.4464811774197948e-02  -3.7369664264502570e-02  -1.6096345484324145e-02  4.7746450507083283e-03  -5.1659408656396399e-02  -3.9656189657431215e-02  -2.6528423530710690e-02  -3.1691216541995304e-02  -2.0246062488347438e-02  7.0497058108048658e-03  -2.3391065210867930e-02  1.2191675189148080e-03  2.5262393192714502e-02  1.2440381425405595e-02  -7.8230097046961475e-03  -2.7438219081271221e-03  2.1714668518182538e-02  7.5773336938559179e-04  -1.8416920610958912e-02  -1.9334230487178299e-02  -7.0793860401056775e-03  -3.7314750021487993e-02  -4.2839737131243803e-02  -5.5552269043418069e-02  -5.6061146348699194e-02  3.1873107769353107e-02  -4.3803031197849111e-02  -4.0614187051791796e-02  -4.9857461957936840e-02  -3.6401084091521402e-02  -5.8574895188209491e-02  -5.9562069673804174e-02  -4.9103494583113305e-02  -2.6130370807114903e-02  -4.9084155367554061e-02  -5.8029580395550152e-02  -4.1890363371985817e-02  -1.8558684672694305e-02  -3.7300389603977219e-02  -4.0549750035223125e-02  -2.4189773663759451e-02  -4.3372383969196834e-02  -5.5365697683314827e-02  -5.8399309742101828e-02  -4.9667177264692268e-02  -5.3886466089413082e-02  -4.3267287516766867e-02  -6.4143735637905264e-02  -2.3320177680217158e-02  3.5300975281723115e-02  -5.9790608226096387e-02  3.5025847068598411e-02  -5.9550623041683664e-03  -3.3011196411101874e-02  -1.0642733580730774e-02  -3.4834784259090888e-02  -5.3379805698815494e-02  -5.6846869083138636e-02  -4.2294630177418094e-02  -2.2974668287074170e-02  -3.9787788500862502e-02  -4.9054151349717169e-02  2.4474099020405610e-02  -6.8639589672707141e-02  -7.1681849803369668e-02  -2.5351113338816709e-02  -4.6354598542560688e-02  -4.2067860421214798e-02  -3.0546372366035454e-02  -4.1890670187146692e-02  -5.7504222104477434e-02  -4.2467247557795185e-02  -5.3492139315900446e-02  -6.0720896859770265e-02  -6.7627170387588989e-02  -7.6809705474812362e-02  -8.2600260934567737e-02  -5.4126701835277097e-02  -6.9311343032181325e-02  -7.0613572136319747e-02  -6.6707103179288449e-02  -7.8765329882311469e-02  -8.6667934260281868e-02  -7.3066140559852388e-02  -4.9143177777193840e-02  -2.7072997416323560e-02  -7.8457500641946079e-02  -7.5810884641408810e-02  -7.0732255248124556e-02  -8.3527181811220236e-02  -6.9607475647510131e-02  -6.9783857634728705e-02  -7.7267152290717900e-02  -8.6305795745388048e-02  -6.8861340413652189e-02  -7.0511576804629605e-02  -7.7989743798789951e-02  -5.9293396294566703e-02  -7.4107932302016719e-02  -5.5156339845769800e-02  -7.2368662661085797e-02  -8.0532548083390401e-02  -8.6438815326412899e-02  -7.6911538890312492e-02  -6.0448593433286346e-02  -4.1582803397345776e-02  -6.8384824432974806e-02  -7.6836132721797401e-02  -6.2056993248115949e-02  -9.2482956680466952e-02  -9.2261913977910739e-02  -9.1461208403529975e-02  -9.2210652951312810e-02  -7.3829779345660179e-02  2.6147571915818211e-02  3.8413056276028132e-02  -5.1771007900282162e-02  -7.8478947117586018e-02  -8.0610588165118860e-02  -7.0417583624206179e-02  -8.6635678648204692e-02  -7.2287754360570500e-02  -6.3973217663016613e-02  -4.5921532904243480e-02  -2.9884184114766243e-02  -7.1082233093402239e-02  -3.2124238954405332e-02  3.2853729239856001e-02  3.2403956552842797e-02  9.9700122442034148e-03  -4.9947945065141879e-02  -6.3851167611873996e-02  -4.8666635488426563e-02  -5.4236065953367267e-02  -4.8147539387033297e-02  -7.5508941201433560e-02  -7.3828859205405994e-02  3.0225478195513768e-02  -7.0924136845747499e-02  -5.0892741120643709e-02  -5.4991618353044634e-02  -2.0974208788204950e-02  -6.4157482251033196e-02  -2.5571190009409113e-02  9.3896915983610815e-03  -7.6281431095181387e-02  4.0556523228218865e-02  -1.1966920687699369e-02  -8.0629532503176352e-02  -2.8806604544310617e-02  -5.0094994466382402e-02  -5.2666004927696450e-02  2.6879959836817038e-02  -7.6344178473232369e-02  -5.9629011347430358e-02  -4.9990019338764270e-02  4.2590552607656158e-02  -5.7330466414361098e-02  -4.3639834843490440e-02  3.8479878461821396e-02  -1.9098225289545544e-02  -4.8296801470362374e-02  4.2100189127335243e-02  -2.5636757846662892e-02  -6.1161703506670308e-02  -6.2208784921864727e-02  -3.6861189014475042e-02  -1.7465897420463734e-02  -5.0279603329335759e-02  -7.7338457082867143e-02  -2.7527889632925264e-02  -9.9560781636462412e-02  -9.8928780159605309e-02  -9.9199705912700928e-02  -9.8627221253465638e-02  -5.8099518900263741e-02  -7.1506387131332116e-02  -6.1023127542559341e-02  -6.9326594946771666e-02  -5.2784325566938711e-02  -1.2756628335952487e-02  -6.7642820777947768e-02  -6.1402833143966974e-02  -3.4547719473071017e-02  -7.5413534860551664e-03  -1.8757612097268443e-02  -5.5141350005176622e-03  -6.2696853218697404e-02  -7.5485370147382455e-03  -4.5969633353561912e-02  -2.0645205329446665e-03  4.0992314088268603e-02  -4.2965867181689217e-02  -2.0140782035299235e-02  -3.4755864653452692e-02  -5.0905210581924390e-02  -1.4694362258670655e-02  -8.2413638860124767e-03  3.4192779509517580e-02  -7.7488570880345803e-02  -1.3607262350929791e-01  -1.3639122542499718e-01  -1.4201028244141145e-01  -1.4899361614216694e-01  -1.4195534221412207e-01  -1.4931958456988051e-01  -1.3715000348023174e-01  -1.4246879647865532e-01  -1.3706297063708450e-01  -1.4238877568165770e-01  -1.4925760295103507e-01  -1.4961271208472832e-01  -7.2270189719435191e-02  -6.5338237458873891e-02  -7.7768719739242070e-02  -6.7288738962771252e-02  -1.3747004369526261e-01  -1.4663371616201104e-01  -1.4593473884683167e-01  -1.3625732997126155e-01  -1.5179933295688788e-01  -1.5787081802539599e-01  -1.3774764651618654e-01  -1.3904516690199192e-01  -1.4950900540185022e-01  -1.6430293624514286e-01  -1.7136955324601533e-01  -1.6946202394744680e-01  -1.7868544982225179e-01  -1.7833817503980962e-01  -4.6358370879660049e-02  -4.5184994420788840e-02  -4.6939829366373725e-02  -4.4661369429556126e-02  -8.1145613644950501e-02  -7.9258605097366111e-02  -8.3815587946653405e-02  -1.8220563438807674e-01  -1.8164733045639264e-01  -1.7423898555429629e-01  -1.6872814456329768e-01  -8.1365783331437444e-02  -8.4653765400577868e-02  -8.1350140970701035e-02  -7.3414666584690993e-02  -7.8222129408164420e-02  -7.2686301365140746e-02  -9.0254646213213788e-02  -5.1769133324814177e-02  -1.7386390482750930e-01  -1.6948665975280280e-01  -5.9974138420504843e-02  -5.2990690035310734e-02  -6.0846999254106512e-02  -1.5435016566067936e-01  -1.5888076769762563e-01  -1.6779570064821916e-01  -1.7393283624341130e-01  -1.7886402156593340e-01  -1.8234914832580573e-01  -1.7805263679899683e-01  -1.8334716000848017e-01  -1.8132114519580719e-01  -1.8250308258877487e-01  -1.5386080848463429e-01  -1.5909595892369993e-01  -1.6728869100596852e-01  -1.7341906484122727e-01  -1.6942473743614897e-01  -1.7821748681682287e-01  -1.8173130226209738e-01  -1.8265815129543514e-01  -1.8051237685214927e-01  -1.8195631262733930e-01  -1.4384799078051849e-01  -1.5220301074740794e-01  -1.5826702717606755e-01  -1.6470379438958799e-01  -1.7188666427634836e-01  -1.6997830096717376e-01  -1.7902895489601334e-01  -1.7882722631306910e-01  -1.8270933336022982e-01  -1.8242095302445674e-01  -1.3492469720092021e-01  -1.3659519862889061e-01  -1.4131151892987465e-01  -1.4051823246132442e-01  -1.7908129085295091e-01  -1.7929685560258052e-01  -1.7711352810225056e-01  -1.8019332595381021e-01  -1.8029483692645573e-01  -1.7865129932150012e-01  -7.8919030283921152e-02  -1.7780645495801525e-01  -1.8025483534200315e-01  -1.7935183513571529e-01  -1.7711219350841076e-01  -1.7862519267271726e-01  -1.8090124740882055e-01  -1.4213508467782784e-01  -1.6819558848049826e-01  -1.6962393073378096e-01  -6.5601309014588174e-02  -6.1276925528426000e-02  -6.6024254518453021e-02  -1.7066316165650211e-01  -1.7046219385790948e-01  -1.6581991696951351e-01  -1.6205337544228943e-01  -1.7143229627583531e-01  -1.7404424808644461e-01  -1.7020768436582467e-01  -1.7274745935822106e-01  -1.6477746537924345e-01  -1.7220272180793977e-01  -1.5882397968147852e-01  -1.6692640671767398e-01  -1.5203618526540769e-01  -1.5874293642137385e-01  -1.6610726369435394e-01  -1.7258506511937602e-01  -1.5954630391881550e-01  -1.6607420483987761e-01  -1.5227924897032000e-01  -1.5934662466209670e-01  -1.4530433126030351e-01  -1.5358877209333735e-01  -1.3936302443123874e-01  -1.4936568769636591e-01  -1.3562254663612522e-01  -1.4739142986433099e-01  -1.3412702166678017e-01  -1.4769408819998162e-01  -1.4449825254510323e-01  -1.5261124736817214e-01  -1.3824328712988093e-01  -1.4826955290719609e-01  -1.3436031357511632e-01  -1.4622184567542060e-01  -1.3265672434174161e-01  -1.4642972818411087e-01  -1.6885146332599410e-01  -1.6971960706389261e-01  -1.6882598326222803e-01  -1.6847887511730880e-01  -1.6794672780771694e-01  -1.6826598187646244e-01  -1.3579061249675470e-01  -1.5036799980732854e-01  -1.3899651087196960e-01  -1.5466739021404377e-01  -1.4372142868027216e-01  -1.3422594693874434e-01  -1.4900152383652782e-01  -1.3728084721412276e-01  -1.5337713833612276e-01  -1.4228378422518853e-01  -1.8156199280087149e-01  -1.7542051950150700e-01  -1.7375721915269562e-01  -1.5566053043532452e-01  -1.6051622756704334e-01  -1.5665230077931738e-01  -1.6133777080629524e-01  -1.5034778902549481e-01  -1.4604074140032708e-01  -1.5118370429622582e-01  -1.4792166357997838e-01  -1.5332456862906926e-01  -1.1392266261709849e-01  -1.5409637064254930e-01  -1.5791970178356593e-01  -1.4952793552495103e-01  -1.5235588204530273e-01  -1.1259097891508466e-01  -1.5814577372300911e-01  -1.4639130909459142e-01  -1.6254579325436777e-01  -1.5045277891578132e-01  -1.6330080609937223e-01  -1.4794862421992858e-01  -1.4957919416689203e-01  -1.4348115856567500e-01  -1.5876467796525695e-01  -1.4908606059218749e-01  -1.6371518223613021e-01  -1.2315858281279247e-01  -1.7461745718903138e-01  -5.1653679512386100e-02  -1.6260755523179907e-01  -1.7509569056958482e-01  -1.2662537071394012e-01  -1.4038011498921341e-01  -1.5269840104843294e-01  -1.2741338540957381e-01  -1.6321699940470838e-01  -1.6266865528815150e-01  -1.5936064531414140e-01  -1.6926906951599682e-01  -1.6451706182304732e-01  -1.7033282415064391e-01  -1.6548620910086534e-01  -1.6394636728560488e-01  -1.5892640686018314e-01  -1.7030057900302797e-01  -1.5987567385416396e-01  -1.5454665397745004e-01  -1.5479982739708775e-01  -1.5089065477579328e-01  -1.5172031735782479e-01  -1.4898900687253222e-01  -1.5010797510067944e-01  -1.5957278784972773e-01  -1.5968829878499627e-01  -1.4771279470524357e-01  -1.6245183984889622e-01  -1.5678340523827625e-01  -1.5311961731943424e-01  -1.2497960021744757e-01  -1.5010323347117452e-01  -1.4381939990879353e-01  -1.4699165093763536e-01  -1.3835867593979273e-01  -4.7788823807632344e-02  -5.5646081270575347e-02  -5.2442168121190555e-02  -1.5766776207128477e-01  -1.5108657338029954e-01  -1.7839034033749362e-01  -1.6790086736742479e-01  -1.7319751418109935e-01  -1.3440051698515848e-01  -1.3448499014197524e-01  -1.3689219835969593e-01  -1.5708435435398652e-01  -1.6461348052064792e-01  -1.6876207582475186e-01  -1.6415106422866560e-01  -1.5349650459418177e-01  -1.5720887560947627e-01  -1.5741050478441654e-01  -1.5472313793737291e-01  -1.5071963090565241e-01  -1.5250717020047880e-01  -1.4273235834043624e-01  -1.4980456296408426e-01  -1.5062422318427879e-01  -1.5205445838524306e-01  -1.4751638202949580e-01  -1.5448575010796534e-01  -1.4571931624212317e-01  -1.5667050390566492e-01  -1.5617353677265994e-01  -1.6133541605221643e-01  -1.5892799015766682e-01  -1.6713625557091225e-01  -1.5982769681708126e-01  -1.7300040234700204e-01  -1.5763534332535781e-01  -1.7203822949133998e-01  -1.5393319733168948e-01  -1.5918954226431806e-01  -1.5094302302630141e-01  -1.7072503394156333e-01  -1.6715938694285570e-01  -1.4248305088270419e-01  -1.4301347342543519e-01  -1.5461300462151836e-01  -1.5170654349990664e-01  -1.6722104723771838e-01  -1.4825524094451986e-01  -1.6606441962239782e-01  -1.3710819124636495e-01  -1.4668597986478829e-01  -1.5202546625247690e-01  -1.6861679487291895e-01  -1.4634857487669153e-01  -1.6517882502910602e-01  -1.4628863890051241e-01  -1.1803424511767853e-01  -1.2304342324437220e-01  -1.4736705279942444e-01  -1.5431129883662270e-01