<?xml version="1.0"?>
<VTKFile type="UnstructuredGrid"  version="0.1"  >
<UnstructuredGrid>
<Piece  NumberOfPoints="1297" NumberOfCells="2496">
<Points>
<DataArray  type="Float64"  NumberOfComponents="3"  format="ascii">0 0 0  0 1 0  1 1 0  1 0 0  1.1 -0.1 0  -0.1 -0.1 0  1.1 1.1 0  -0.1 1.1 0  0.3067700698775711 0.6654379609661336 0  0.3063135451400981 0.3289208005057776 0  0.6879652462788164 0.3297653102635337 0  0.6874670830091916 0.6644456017421203 0  0.4968472001341768 0.496937985294383 0  0 0.9499999999997918 0  0 0.8999999999995836 0  0 0.8499999999996529 0  0 0.7999999999999998 0  0 0.7500000000003466 0  0 0.7000000000006934 0  0 0.6500000000010401 0  0 0.6000000000013869 0  0 0.5500000000017335 0  0 0.5000000000020587 0  0 0.4500000000018723 0  0 0.4000000000016644 0  0 0.3500000000014564 0  0 0.3000000000012483 0  0 0.2500000000010403 0  0 0.2000000000008322 0  0 0.1500000000006241 0  0 0.100000000000416 0  0 0.05000000000020799 0  0.04999999999989965 0 0  0.09999999999981467 0 0  0.1499999999997036 0 0  0.1999999999995579 0 0  0.2499999999994121 0 0  0.2999999999992664 0 0  0.3499999999991206 0 0  0.3999999999989749 0 0  0.4499999999988292 0 0  0.4999999999986943 0 0  0.5499999999988151 0 0  0.5999999999989468 0 0  0.6499999999990784 0 0  0.69999999999921 0 0  0.7499999999993417 0 0  0.7999999999994734 0 0  0.8499999999996051 0 0  0.8999999999997368 0 0  0.9499999999998684 0 0  1 0.04999999999989965 0  1 0.09999999999981467 0  1 0.1499999999997036 0  1 0.1999999999995579 0  1 0.2499999999994121 0  1 0.2999999999992664 0  1 0.3499999999991206 0  1 0.3999999999989749 0  1 0.4499999999988292 0  1 0.4999999999986943 0  1 0.5499999999988151 0  1 0.5999999999989468 0  1 0.6499999999990784 0  1 0.69999999999921 0  1 0.7499999999993417 0  1 0.7999999999994734 0  1 0.8499999999996051 0  1 0.8999999999997368 0  1 0.9499999999998684 0  0.9499999999997918 1 0  0.8999999999995836 1 0  0.8499999999996529 1 0  0.7999999999999998 1 0  0.7500000000003466 1 0  0.7000000000006934 1 0  0.6500000000010401 1 0  0.6000000000013869 1 0  0.5500000000017335 1 0  0.5000000000020587 1 0  0.4500000000018723 1 0  0.4000000000016644 1 0  0.3500000000014564 1 0  0.3000000000012483 1 0  0.2500000000010403 1 0  0.2000000000008322 1 0  0.1500000000006241 1 0  0.100000000000416 1 0  0.05000000000020799 1 0  -0.1 1.05000000000004 0  -0.1 1.000000000000079 0  -0.1 0.9500000000001624 0  -0.1 0.9000000000003032 0  -0.1 0.850000000000444 0  -0.1 0.8000000000005848 0  -0.1 0.7500000000007256 0  -0.1 0.7000000000008665 0  -0.1 0.6500000000010508 0  -0.1 0.6000000000012352 0  -0.1 0.5500000000014196 0  -0.1 0.500000000001539 0  -0.1 0.4500000000014195 0  -0.1 0.4000000000013 0  -0.1 0.3500000000011588 0  -0.1 0.3000000000010178 0  -0.1 0.2500000000008986 0  -0.1 0.2000000000007579 0  -0.1 0.1500000000006174 0  -0.1 0.1000000000005272 0  -0.1 0.05000000000040083 0  -0.1 2.671196597248127e-13 0  -0.1 -0.0499999999998666 0  -0.0500000000000906 -0.1 0  -1.730560139634463e-13 -0.1 0  0.04999999999975802 -0.1 0  0.09999999999961506 -0.1 0  0.1499999999994613 -0.1 0  0.199999999999302 -0.1 0  0.2499999999991446 -0.1 0  0.2999999999990088 -0.1 0  0.3499999999988296 -0.1 0  0.3999999999986936 -0.1 0  0.4499999999985143 -0.1 0  0.4999999999984002 -0.1 0  0.5499999999985247 -0.1 0  0.5999999999986493 -0.1 0  0.6499999999987955 -0.1 0  0.6999999999989417 -0.1 0  0.7499999999990659 -0.1 0  0.7999999999992116 -0.1 0  0.8499999999993573 -0.1 0  0.8999999999994526 -0.1 0  0.949999999999584 -0.1 0  0.9999999999997226 -0.1 0  1.049999999999861 -0.1 0  1.1 -0.0500000000000906 0  1.1 -1.730560139634463e-13 0  1.1 0.04999999999975802 0  1.1 0.09999999999961506 0  1.1 0.1499999999994613 0  1.1 0.199999999999302 0  1.1 0.2499999999991446 0  1.1 0.2999999999990088 0  1.1 0.3499999999988296 0  1.1 0.3999999999986936 0  1.1 0.4499999999985143 0  1.1 0.4999999999984002 0  1.1 0.5499999999985247 0  1.1 0.5999999999986493 0  1.1 0.6499999999987955 0  1.1 0.6999999999989417 0  1.1 0.7499999999990659 0  1.1 0.7999999999992116 0  1.1 0.8499999999993573 0  1.1 0.8999999999994526 0  1.1 0.949999999999584 0  1.1 0.9999999999997226 0  1.1 1.049999999999861 0  1.05000000000004 1.1 0  1.000000000000079 1.1 0  0.9500000000001624 1.1 0  0.9000000000003032 1.1 0  0.850000000000444 1.1 0  0.8000000000005848 1.1 0  0.7500000000007256 1.1 0  0.7000000000008665 1.1 0  0.6500000000010508 1.1 0  0.6000000000012352 1.1 0  0.5500000000014196 1.1 0  0.500000000001539 1.1 0  0.4500000000014195 1.1 0  0.4000000000013 1.1 0  0.3500000000011588 1.1 0  0.3000000000010178 1.1 0  0.2500000000008986 1.1 0  0.2000000000007579 1.1 0  0.1500000000006174 1.1 0  0.1000000000005272 1.1 0  0.05000000000040083 1.1 0  2.671196597248127e-13 1.1 0  -0.0499999999998666 1.1 0  0.2950900363052314 0.6534011581337711 0  0.2843484674745859 0.6353377378483305 0  0.2768618452951546 0.6143381756806218 0  0.2715936412354947 0.5917273371199474 0  0.2678808402329909 0.5684383624891542 0  0.2653314993167873 0.5448741075737753 0  0.2637593117943052 0.5211386817529867 0  0.2632524373525617 0.4973146775958175 0  0.2637552278640138 0.4734819873913414 0  0.2651865538756761 0.4496972326212588 0  0.2676481599492431 0.426088304546767 0  0.2713359103755325 0.4027958761489744 0  0.2765806931008786 0.3802175744882395 0  0.284009349100843 0.3591195723293613 0  0.2947922107610433 0.340962800154597 0  0.3180648815923888 0.3111886121304704 0  0.3338830885490741 0.2960474691427669 0  0.3528506749710341 0.2838870730496779 0  0.3732522116823125 0.274032892270744 0  0.3940414588824671 0.2660653461802838 0  0.4148831311333004 0.2596767109781273 0  0.4355637481244593 0.2546994563829226 0  0.4562044947128234 0.2509799676599764 0  0.4768713495675073 0.2487711139042427 0  0.4975358750350087 0.2480803149296648 0  0.5181879668013982 0.2489051372536595 0  0.5388356931234046 0.2512068559756349 0  0.5595175389693162 0.254924427013914 0  0.5801940776930827 0.2600286539605403 0  0.6011269426999338 0.2665432881910405 0  0.6219459856616942 0.2746134481118401 0  0.6421377870333331 0.2845711616595703 0  0.660832036634162 0.2967459619049723 0  0.6763848064193935 0.311867692844694 0  0.6995420017058385 0.3418709779786083 0  0.7099974208115277 0.3597497193255086 0  0.717262236171708 0.3807370119279056 0  0.7223004382082764 0.4032483198091595 0  0.7257888225780302 0.4264374366026997 0  0.7280924824457065 0.4499006311471596 0  0.729361548190807 0.4734873937523859 0  0.7296868441229813 0.4971301961375354 0  0.7290161825177952 0.5207515301040069 0  0.7275838142098224 0.5442513387564952 0  0.7252692818009595 0.5676628021267521 0  0.7218127761588065 0.5908392114124762 0  0.7167972689900917 0.6134081212553338 0  0.7095476048008246 0.634428137206113 0  0.6991136745119199 0.6523394979634686 0  0.6759717670588061 0.6821944218449743 0  0.6604587424715613 0.6972401238256848 0  0.6418331211379766 0.7093934459772379 0  0.6216620189328402 0.7193071108983614 0  0.6008506369563142 0.7273642163178904 0  0.5799170275487 0.7338730475479701 0  0.5592649397860342 0.7389651300341785 0  0.5386269622956013 0.7426493700716819 0  0.5180565273426534 0.7448994318903208 0  0.4975256443360113 0.7456937082175854 0  0.4769661128557941 0.7450127701771249 0  0.4563738539058498 0.7428093742013583 0  0.4357992225282356 0.7391390881244384 0  0.4150913606036616 0.7342233535153437 0  0.3942008866181055 0.7279103682084683 0  0.3734454727072903 0.7200234960147206 0  0.3531286884338322 0.7102453342819127 0  0.3342376569503248 0.6981442119051724 0  0.3184757703495609 0.6830626008705049 0  0.3848404468095801 0.2968763226439277 0  0.2891234369583005 0.4371889659279511 0  0.3850249432750167 0.6971369452263544 0  0.2892876127094689 0.557311165240813 0  0.7026940419433931 0.5796984601776382 0  0.5893745812367642 0.7045447825541272 0  0.6091656863449252 0.296529370624985 0  0.7058299460542339 0.4366623359025287 0  0.7073508185876031 0.5084013058671148 0  0.5480601144467824 0.2791404119586094 0  0.4470442639551465 0.2813067935780668 0  0.4459885973628522 0.7128968892356333 0  0.527985941606904 0.7161327384122101 0  0.2862237402516776 0.4851835524385043 0  0.2946543173774664 0.3904482055866926 0  0.487341044656338 0.2798977915157063 0  0.3006236069814568 0.6025637904389726 0  0.6929674026795971 0.3886642174967081 0  0.4872073789766408 0.7175076182692915 0  0.6297923111478447 0.6889021890437096 0  0.3448746166411738 0.3171493057487609 0  0.6498295815905624 0.3193766587504799 0  0.3455900682249902 0.6797706972834651 0  0.6901458146399889 0.6267916687637416 0  0.30930421269338 0.347031580391504 0  0.3117091659059998 0.6463322911013295 0  0.6675908438996224 0.6679070355743798 0  0.6854453286163478 0.3473219761324262 0  0.3650043151343195 0.689201995541453 0  0.3751052823615515 0.6678174126737895 0  0.3952831265399335 0.6737969799386624 0  0.3839834437414339 0.645016753030153 0  0.4052716829107447 0.6497713570591592 0  0.392317820381164 0.618811850746514 0  0.418066380965868 0.6228750516255158 0  0.402310790044699 0.5867759208521192 0  0.3665424111675828 0.6132646067825623 0  0.4338086875964897 0.589369315982281 0  0.4146558624169446 0.549010209646051 0  0.3769565067888073 0.5531549474440073 0  0.3924366228952132 0.5121750879506932 0  0.3558972914957936 0.5140119106430381 0  0.3687086134620683 0.477977641968196 0  0.4068181276468026 0.4716673957008098 0  0.3874155527306026 0.4373430723375763 0  0.4215216919929359 0.4298309783151532 0  0.4036222760579812 0.3970742123644853 0  0.4343319254643715 0.3816667488691986 0  0.3713606275001625 0.4016934881476496 0  0.4128419426080108 0.3598010768983235 0  0.4428001629222407 0.627444039323268 0  0.4655855476264759 0.5996520483911928 0  0.4824225025498309 0.629856956297435 0  0.4988978722129459 0.6019579198154872 0  0.514764693713136 0.6299848542513405 0  0.531408142220635 0.6018252401958355 0  0.5467907109932469 0.6293151486792868 0  0.5636789757629052 0.6012251802744699 0  0.5792915676392807 0.6304689468303496 0  0.5961958014002884 0.5923168386828539 0  0.5820564212192301 0.
[...]
<PointData  Scalars="u"> 
<DataArray  type="Float64"  Name="u"  format="ascii">3.5438520144723908e-19  -1.4851529996992717e-18  -1.3273264110484862e-18  -6.3853064062732859e-18  3.1029622848744086e-19  -5.4455710535830645e-20  4.0455830236376736e-20  1.2350742753333359e-19  -1.2364020856736471e-01  -1.2096371372016408e-01  -1.2445977958251705e-01  -1.2728136154041697e-01  4.8149766006475456e-02  -2.9223779605404671e-18  -1.0006592700257442e-17  -1.7836645457981045e-17  -1.8450765411751947e-17  -2.6096984346787714e-18  -2.2969124990098326e-17  -1.1850018313457433e-17  -2.2193725726986589e-17  2.2185338818147904e-17  -3.7727202339718505e-17  -1.7501904330482471e-17  -2.0492058871396296e-20  -1.9608406174491994e-17  -8.5756383925490047e-18  1.0155783567821989e-17  2.4902076778167136e-19  -4.0425095150743460e-18  4.8622705584951120e-18  -3.0176347100458137e-18  -2.9442310031186934e-18  5.4118196218529101e-18  -1.1345106445835611e-17  1.3411605958694291e-17  1.0635368455956569e-17  -5.8760336899834718e-18  -9.6018780418620438e-18  2.5686808932026287e-18  -1.0419353679128868e-18  -1.7234318476625517e-17  0.0000000000000000e+00  5.7002763078508233e-18  -1.3250894783418659e-18  2.9468787303448801e-19  -1.3961894757784725e-17  -2.5478707918301381e-18  -2.1397478796334141e-17  -8.6692907234005209e-18  -2.3803268602135116e-18  1.0035990660719363e-17  1.9006056545010986e-17  -3.9026048073526506e-18  -2.7104628280476219e-18  -4.1232885650210451e-19  1.6415301296034362e-19  -5.0739055506319190e-17  -6.5594731286943075e-19  -1.5672713000756906e-17  4.3658534667373121e-18  -1.6054529264830803e-17  -3.9292799364853093e-17  -1.0566855983755183e-18  -2.0811054416161980e-17  -1.0109939637786483e-18  4.3105360285373241e-18  7.0019307992865238e-18  2.5897471111413398e-18  -2.6351649019441032e-18  1.4093041876140321e-18  1.2721990349456808e-17  -1.0769082897803513e-17  -1.5132168477640756e-17  3.2297136926973134e-18  6.9535013661371661e-18  2.2437454084831128e-19  -3.1404120607692065e-17  8.5463834029934839e-18  -4.1976012636134463e-17  -1.5526516611816568e-17  -6.4599130774146373e-18  -1.5776730736165532e-18  5.5138862092410945e-18  -6.5092764197222791e-18  -3.4743113304024370e-17  -4.2690300947879218e-18  -3.1298568592395919e-19  1.0073918615652350e-17  -1.3595168768284174e-20  -1.1390345240110013e-19  -5.1071976876156104e-19  -1.8896244893944480e-18  -2.3064036233921704e-18  -2.1291907799271815e-18  -1.2204175275322717e-18  -2.1817913988427384e-18  -3.0797335915224039e-18  -6.5062643502039421e-19  -4.7088257344614495e-21  -2.6408129396542385e-18  -2.1389978540047405e-18  -8.5069597763896925e-19  -1.9468853075519878e-18  -2.0091687013348725e-18  3.4390705008063356e-19  7.7413858581671262e-19  8.1389923493386112e-21  1.5352714052505592e-19  -5.2057850092561608e-20  -1.5495869226838244e-19  7.8807203559164917e-20  7.1855243878003889e-20  -1.5139694500389063e-19  1.0532652725804252e-19  -7.0102390523313106e-20  -7.0926616236069035e-19  1.5321731938775969e-18  1.8934817524571873e-18  -1.3067916878146861e-18  -1.1418859388836174e-18  2.3998583402529822e-19  -4.3177708865871473e-19  -2.0674612338343407e-18  -2.9640714293065286e-19  8.6078363730093918e-19  2.0342154467205321e-19  -5.6622392769879382e-19  -1.1964536334376205e-18  -1.2857851051624702e-18  -2.1235584437724824e-18  -1.9701186383169196e-18  -5.0798348879265762e-19  -5.6456959026120085e-19  -1.4988357128239703e-19  -2.4090299941600352e-19  -6.2702773206961191e-19  1.5569581678543877e-18  2.1135490147378676e-18  -3.7788185438328830e-19  -6.7270906652159373e-19  6.4764183721141609e-19  -1.5389377286922395e-18  -5.0615823272436666e-18  -1.2619337765696787e-18  -8.3431805038337114e-19  -1.9349548089609739e-19  -2.5790465028539173e-18  -4.2994835465946291e-18  -2.0519805802786483e-18  -1.2915396056454074e-18  3.0972940406694095e-19  4.9801601710070614e-19  9.9453927406933075e-19  3.6337569732290635e-19  -3.0375230091741490e-19  -2.4238170874753769e-19  1.5913849268725008e-20  -7.3093545987303100e-21  -2.9321172770684749e-19  5.8180986573118707e-19  1.0679334975182499e-18  -1.0153559253524771e-18  -1.8360760858295275e-18  4.3840568602940172e-19  1.3524037064770470e-18  -1.2617513721386776e-18  -1.5286159753939749e-18  -9.8706502454875748e-19  -4.0547106677038081e-18  -3.2024065687518082e-18  -9.6174612914610565e-19  -2.5156401027091200e-19  2.4143098138032737e-19  -2.0468674918157194e-18  -2.1607452893163732e-18  -1.8223663519916927e-19  9.8399023536585220e-20  1.0799105025635364e-18  2.9408088547805208e-19  -2.4506297072492153e-19  -1.2462481486942087e-01  -1.2304603269944364e-01  -1.1965596376952714e-01  -1.1559624067117300e-01  -1.1183665070988266e-01  -1.0888889871999122e-01  -1.0710940971414222e-01  -1.0627780560646261e-01  -1.0673752684983225e-01  -1.0829896799686675e-01  -1.1078222980560758e-01  -1.1411394088746075e-01  -1.1780670520726388e-01  -1.2098874839045674e-01  -1.2219942600469907e-01  -1.2308664410506887e-01  -1.2274984913289047e-01  -1.2037641103802395e-01  -1.1717689138409429e-01  -1.1395596952405657e-01  -1.1134886229231336e-01  -1.0930823880676598e-01  -1.0792577787868654e-01  -1.0724286180691472e-01  -1.0709795843052167e-01  -1.0751905029884336e-01  -1.0860956174510035e-01  -1.1024990947362689e-01  -1.1281254614608247e-01  -1.1583799445868956e-01  -1.1939932805543213e-01  -1.2292486500762667e-01  -1.2569379897797614e-01  -1.2633405724407951e-01  -1.2587717325073455e-01  -1.2504871008449250e-01  -1.2228709138647539e-01  -1.1879140331357405e-01  -1.1552748318799025e-01  -1.1303883170457374e-01  -1.1155957161400055e-01  -1.1116031776682811e-01  -1.1182496410185486e-01  -1.1357030358343956e-01  -1.1645111200865543e-01  -1.2016426324214274e-01  -1.2403611914306933e-01  -1.2723093062490837e-01  -1.2844875581547335e-01  -1.2954465848671951e-01  -1.2923259514455862e-01  -1.2682329687325494e-01  -1.2353864423039641e-01  -1.2023673010373342e-01  -1.1738126380896519e-01  -1.1497700877319950e-01  -1.1347310548434350e-01  -1.1243323558522154e-01  -1.1197198714353759e-01  -1.1209545781260835e-01  -1.1274039083539908e-01  -1.1402653433855391e-01  -1.1589329601624720e-01  -1.1833403315203891e-01  -1.2131200354586594e-01  -1.2420736795465220e-01  -1.2620232778612675e-01  -1.2613898399717274e-01  -7.5065992731891726e-02  -6.9569125491385705e-02  -7.8652402125121673e-02  -7.0566159874532089e-02  -7.9968616430490996e-02  -7.7622160837061055e-02  -7.7313273537273200e-02  -7.5232903038559076e-02  -7.0573161945144847e-02  -6.8339971077102435e-02  -6.5510552614863202e-02  -7.0036001613774101e-02  -6.9884800358637408e-02  -6.5830118025792139e-02  -7.9635831232794815e-02  -6.1554026391400375e-02  -7.6234170694036665e-02  -7.9450737632136059e-02  -6.8726450547598739e-02  -8.5715090247676956e-02  -8.2667990066442196e-02  -8.4519108898808162e-02  -8.7360870343839783e-02  -8.8846587468362936e-02  -8.8661696334874418e-02  -8.9070782357148770e-02  -9.5144441381904643e-02  -9.2738278635459498e-02  -8.2852726035129567e-02  -6.1467692105658028e-02  -5.5411075948222248e-02  -3.9151253564626932e-02  -3.1052598515889759e-02  -1.5714708330812368e-02  -6.2414463892030191e-03  4.9692251905864432e-03  -2.9010350461199649e-02  1.6679878112961306e-02  2.3910960606583709e-02  3.5348017889773472e-03  1.9295535201306203e-02  -3.9464847330162476e-03  5.3670081452406402e-03  2.5957941709304457e-02  9.5128086559955766e-03  2.3552471027628547e-02  3.0308528292126045e-03  7.7409916958913567e-03  -1.2315614779184959e-02  -1.3061187960024255e-02  -9.3917931930002820e-04  1.9637447712066242e-02  3.8911947844825503e-03  2.0835212062196583e-02  2.9212352471891124e-03  1.7316809702318026e-02  -2.3151998279187500e-03  8.4986926817303566e-03  -1.3973632879533630e-02  -1.5796314477865149e-03  1.8740741409162490e-02  1.0390652128670528e-03  1.7797972117223983e-02  -1.9186159010343481e-02  -2.3531290673941899e-02  -3.2363504314181821e-02  -2.8446690403859266e-02  -2.0729867172314707e-02  -3.2471399415257868e-02  -1.1349176946164025e-02  9.0784615810152788e-03  -5.0437839861448515e-02  -3.4500903842905710e-02  -2.5536393898787670e-02  -3.1110299589983292e-02  -1.5416588624409911e-02  1.1100696306231131e-02  -1.8732303001282889e-02  5.0094446801598521e-03  2.8604782158972129e-02  1.5530877630285541e-02  -4.6360011774208461e-03  -2.7589527043611698e-04  2.3962485589076897e-02  2.5293085302493155e-03  -1.6352881544552344e-02  -1.7913203212786957e-02  -5.6639813682713676e-03  -3.5902708376203379e-02  -4.2091888869763394e-02  -5.5066411290589007e-02  -5.5058597399258703e-02  3.3356723848456657e-02  -4.4725856926916385e-02  -4.1899229564838540e-02  -4.9845655232531497e-02  -3.5991919265378224e-02  -6.0453965277905204e-02  -6.1781460414664091e-02  -5.0836641506247678e-02  -2.1781392523236964e-02  -4.4131459762302094e-02  -5.7348200955971741e-02  -3.6585215506335748e-02  -1.4009272105867786e-02  -3.2698074838633628e-02  -3.6196573060674399e-02  -1.9468680862267593e-02  -3.7852380751526429e-02  -5.1090068688884362e-02  -5.4435908091530934e-02  -4.5558478843973377e-02  -4.8827960553094532e-02  -3.9546650414520101e-02  -5.7978451469400116e-02  -2.0326828885472062e-02  3.7919550724176798e-02  -5.4710354669511164e-02  3.8573663395074530e-02  -5.2548279371966850e-03  -3.2214516130621325e-02  -9.7673222533404425e-03  -3.3687438446623315e-02  -5.1920873868357233e-02  -5.5308304649456866e-02  -4.1090887449245050e-02  -1.8336450891534885e-02  -3.5053636237591834e-02  -4.3090944761047904e-02  2.6122540880703163e-02  -6.8298797221339747e-02  -7.1945754035214401e-02  -2.5909842665704057e-02  -4.7669218440983895e-02  -4.0157329556706339e-02  -2.7717123521290452e-02  -3.8207030696759993e-02  -5.5015552198668292e-02  -3.9926163473138314e-02  -5.1989050543603407e-02  -5.7522776032315481e-02  -6.3966582865575800e-02  -7.3195596836466523e-02  -7.8762416525144541e-02  -4.8039882744712138e-02  -6.2627292709153931e-02  -6.9554522404038477e-02  -6.6189970438873896e-02  -7.8213761643054519e-02  -8.3339988694366832e-02  -7.1820911188206799e-02  -4.7843871468843155e-02  -2.5529265327445438e-02  -8.0701885519921107e-02  -7.4799185709026189e-02  -6.6399558656895133e-02  -8.2351793385454120e-02  -6.3877694879528824e-02  -6.3943147542771681e-02  -7.1805271604188939e-02  -8.5310379284605303e-02  -6.7263989622774564e-02  -6.9847316954481042e-02  -7.7360641773994099e-02  -5.8346565781133300e-02  -7.4268725297717317e-02  -5.5627882330532397e-02  -7.2162787488892488e-02  -8.2292827675780791e-02  -9.0048284613456195e-02  -7.9821305435013992e-02  -6.0053937422289747e-02  -3.6439443513700487e-02  -7.1080738145809674e-02  -7.3242330378175027e-02  -5.7892320726694320e-02  -8.9106255026163428e-02  -9.2218358742875969e-02  -9.4896958833235984e-02  -9.2405223530476227e-02  -7.3509898036773769e-02  3.0041288292127974e-02  4.0170553283160604e-02  -5.0663742329005557e-02  -7.4305222994504705e-02  -7.5079888548162416e-02  -6.6596035414954957e-02  -8.7709501194017075e-02  -6.6972024302212080e-02  -6.6002604974887663e-02  -4.5255495423820499e-02  -2.8916506854619984e-02  -6.5521712911306748e-02  -2.7103180273841742e-02  3.6082322567033531e-02  3.4934097421338281e-02  1.1664324892113428e-02  -4.8773351525091040e-02  -6.2300033802076188e-02  -4.7600560895521289e-02  -4.9096648312354767e-02  -4.6915961498721091e-02  -6.8616614115540667e-02  -7.2033691928787558e-02  3.1484643291885051e-02  -7.3620927916356035e-02  -5.0519052867354995e-02  -5.1637962379823071e-02  -1.7745348686002728e-02  -6.5492565676760567e-02  -2.4167008530871319e-02  1.0958633888615715e-02  -7.4504750432021566e-02  4.3806411001774730e-02  -9.4831588812401921e-03  -8.0787959417340835e-02  -2.4889118525735797e-02  -4.5465381241601703e-02  -5.2626021401314685e-02  3.0581814508628482e-02  -7.0179016080733514e-02  -5.4970034314484155e-02  -4.9139183601716291e-02  4.4672285160097656e-02  -5.1596547966883531e-02  -3.9254487634586249e-02  4.0645382336472968e-02  -1.8206417566110498e-02  -4.2927738345124263e-02  4.5019640063414502e-02  -2.4476735784543305e-02  -5.6852241106199915e-02  -6.3502737966916148e-02  -3.7469353830234815e-02  -1.6612963479130886e-02  -4.4832407163525899e-02  -7.6191218327374230e-02  -2.7199863232630309e-02  -9.5205785348193447e-02  -9.8487019856855540e-02  -9.7832438863057550e-02  -1.0124563329019150e-01  -5.5846472867354308e-02  -7.0847938452089199e-02  -5.9590016889711238e-02  -6.4747900581051787e-02  -4.8478563969060494e-02  -1.2647783434712793e-02  -6.6571106306920452e-02  -6.1226051369841543e-02  -2.9989827505936491e-02  -6.8874846972975272e-03  -1.3904494390565257e-02  -4.4185817992018735e-03  -6.3249310261325881e-02  -6.1533206819650880e-03  -4.5185263812619926e-02  -5.3746473436987099e-04  4.3906291953149892e-02  -3.7825349668919102e-02  -1.5353000816184103e-02  -2.9775767431141957e-02  -4.5706274299315210e-02  -1.0378050176188263e-02  -4.5981636372361056e-03  3.6224371228050126e-02  -7.6403954836457177e-02  -1.3569164548903331e-01  -1.3542661479464926e-01  -1.4082905662897516e-01  -1.4888032512163804e-01  -1.4262407098666491e-01  -1.5232217790023658e-01  -1.3017177251843609e-01  -1.3575955522665958e-01  -1.3067367986962194e-01  -1.3758492917056134e-01  -1.4771801681900620e-01  -1.4492652213814156e-01  -7.3242736875694117e-02  -5.9925486300513073e-02  -7.4559972262861998e-02  -6.6014727468014858e-02  -1.3209500989217599e-01  -1.4456115000839617e-01  -1.4723308786655417e-01  -1.3659720456586769e-01  -1.5579290547805222e-01  -1.6152276314261757e-01  -1.3915535513007665e-01  -1.3317248291989303e-01  -1.4565212350367540e-01  -1.6810996857167870e-01  -1.7489794069671033e-01  -1.7278241218339732e-01  -1.8187336343793536e-01  -1.8119206038082022e-01  -4.5785963337288925e-02  -3.8468463774478219e-02  -4.0469758196787067e-02  -4.3596215210151411e-02  -7.8862761629639760e-02  -8.0715588428263707e-02  -7.9509306276361089e-02  -1.8501115659412151e-01  -1.8397326087890811e-01  -1.7803706588955526e-01  -1.7278096448851699e-01  -8.2481996794090517e-02  -8.3608261037873888e-02  -8.5750920314448059e-02  -8.1382721338821934e-02  -7.9737661256613537e-02  -8.2046742288690092e-02  -8.9067875462750565e-02  -5.1419899370702848e-02  -1.7813522880585103e-01  -1.7411894619082055e-01  -5.8312078140669639e-02  -4.7248163478163553e-02  -5.3523019952796576e-02  -1.5014274764375721e-01  -1.5424410041136624e-01  -1.6237147956479400e-01  -1.6819400910800267e-01  -1.7242630990646282e-01  -1.7588604688500445e-01  -1.7216100396534240e-01  -1.7630011179740251e-01  -1.7410966851959317e-01  -1.7565969822944064e-01  -1.5349492223856245e-01  -1.5802283898608849e-01  -1.6605448426744149e-01  -1.7167311461563112e-01  -1.6769162160692708e-01  -1.7631763691594879e-01  -1.7951737336434689e-01  -1.8038568020057916e-01  -1.7842962135050264e-01  -1.7948671855590684e-01  -1.3893003033514023e-01  -1.5313806054171342e-01  -1.5847875296288094e-01  -1.6530775890531180e-01  -1.7182227375790973e-01  -1.6939493119576399e-01  -1.7823696971827804e-01  -1.7730870626841783e-01  -1.8118258068250118e-01  -1.7991845319545050e-01  -1.3549555516147574e-01  -1.3062537173591457e-01  -1.3721494934811188e-01  -1.4112353844686920e-01  -1.7897426400435840e-01  -1.7696541728744763e-01  -1.7489452846948120e-01  -1.7790258416087645e-01  -1.7263214064063873e-01  -1.7066061422277143e-01  -8.1591253883228021e-02  -1.7432114208850163e-01  -1.7663709454488047e-01  -1.8172076721904235e-01  -1.7890230548164660e-01  -1.8029983317061721e-01  -1.8412467776721592e-01  -1.4480674403429708e-01  -1.6585137036816869e-01  -1.6135591283871195e-01  -6.3573089499997210e-02  -6.1038833770310837e-02  -6.1892358052554317e-02  -1.6310870802714766e-01  -1.6806648872082217e-01  -1.7087474906880601e-01  -1.6778586886324229e-01  -1.6667741850267864e-01  -1.6897320060073376e-01  -1.7138224542409036e-01  -1.7379167473904045e-01  -1.6249923145045397e-01  -1.7009251917670554e-01  -1.5666666334911442e-01  -1.6499940319316878e-01  -1.5008218540193852e-01  -1.5704637554061637e-01  -1.5732865640199814e-01  -1.6408104985284624e-01  -1.5036023598415554e-01  -1.5721886131544105e-01  -1.4284733785870071e-01  -1.5028572132847670e-01  -1.3580892969591180e-01  -1.4447993521569469e-01  -1.2994091465761853e-01  -1.4034370333196711e-01  -1.2636908632093644e-01  -1.3856765179225231e-01  -1.2511204465950898e-01  -1.3916959190378614e-01  -1.4282731965487763e-01  -1.5119552224393187e-01  -1.3688517902062622e-01  -1.4714823345690145e-01  -1.3330329165657670e-01  -1.4538620949795136e-01  -1.3186199634268106e-01  -1.4586248436931268e-01  -1.6578045973338881e-01  -1.6787173124020707e-01  -1.6763875401371922e-01  -1.7152329644522504e-01  -1.6987351691622191e-01  -1.7075660945624804e-01  -1.2709486842705167e-01  -1.4225728482647063e-01  -1.3069217373966735e-01  -1.4706708808947266e-01  -1.3590915171924442e-01  -1.3366196922646076e-01  -1.4869155307235155e-01  -1.3691585480268478e-01  -1.5331262537124371e-01  -1.4211530049162982e-01  -1.7906982192101484e-01  -1.7279625335367316e-01  -1.7110502635076610e-01  -1.5565615774733560e-01  -1.6083207097477573e-01  -1.4941917868941373e-01  -1.5473515851844624e-01  -1.4973615464771106e-01  -1.4376300532854072e-01  -1.4300871839342177e-01  -1.3920914471662810e-01  -1.5215536540170532e-01  -1.0477993950848728e-01  -1.4557303873299396e-01  -1.5172396765995036e-01  -1.4400277556974755e-01  -1.4983891026977678e-01  -1.1159949195663253e-01  -1.5872256993600048e-01  -1.4710948121972084e-01  -1.6096021307206848e-01  -1.5247414160447070e-01  -1.5500829206820635e-01  -1.5405257981374901e-01  -1.5469944357101101e-01  -1.5065546629236390e-01  -1.6503122622208755e-01  -1.4774705863224669e-01  -1.6310995265233549e-01  -1.2134922200282579e-01  -1.7063028537664920e-01  -5.2795140779706567e-02  -1.6677721707506529e-01  -1.7676701240038226e-01  -1.2476848979705342e-01  -1.4846734523695948e-01  -1.5978581567516065e-01  -1.1785108617335044e-01  -1.5789814885523298e-01  -1.6184055778753739e-01  -1.6051383837638844e-01  -1.7038973998489815e-01  -1.6616706158393096e-01  -1.7230912347328781e-01  -1.6825631977527411e-01  -1.6724296336813704e-01  -1.6342079815166946e-01  -1.7229829490520759e-01  -1.6326621594560822e-01  -1.6013687581905470e-01  -1.5918098390931704e-01  -1.5744341102941398e-01  -1.5668808370909437e-01  -1.5613149594419601e-01  -1.5523259361344516e-01  -1.5685198919676160e-01  -1.5709248520568658e-01  -1.5025219872233403e-01  -1.6549952115673339e-01  -1.6207744011724723e-01  -1.5859294433785295e-01  -1.2698629493967653e-01  -1.5706245141290937e-01  -1.4528577685592262e-01  -1.4328731331795258e-01  -1.4676678799471785e-01  -4.6658559305806022e-02  -5.4570992909892715e-02  -4.8983968604301355e-02  -1.5325099883177318e-01  -1.5016979078091783e-01  -1.7588835672869937e-01  -1.6534750332625428e-01  -1.7075414600247465e-01  -1.3174212023719920e-01  -1.3209039218284946e-01  -1.3665818344431141e-01  -1.5488223906962281e-01  -1.6251690400712995e-01  -1.6636219202505717e-01  -1.6189231276111318e-01  -1.5214594467814752e-01  -1.5560251201578068e-01  -1.5480975041598483e-01  -1.5239984673342427e-01  -1.4984551958774658e-01  -1.5089134434629914e-01  -1.4256396710973709e-01  -1.4865112872925232e-01  -1.4786931583059856e-01  -1.4952243019778691e-01  -1.4650565732901538e-01  -1.5184556691503712e-01  -1.4444302666445760e-01  -1.5386413687562800e-01  -1.5229623869894604e-01  -1.5738893976438609e-01  -1.5556569487125665e-01  -1.6267986259685682e-01  -1.5583464871965808e-01  -1.6791478872445784e-01  -1.5297791127209931e-01  -1.6651267156074778e-01  -1.5428343420735510e-01  -1.5998418499502681e-01  -1.5093116316675134e-01  -1.6529258548800860e-01  -1.6296999045037355e-01  -1.4880415834366792e-01  -1.4059331270936834e-01  -1.4851429192028792e-01  -1.4494862097332833e-01  -1.6434311592757123e-01  -1.5097077013435695e-01  -1.6672240004843450e-01  -1.4589260439960872e-01  -1.4683600407764383e-01  -1.5452918352696099e-01  -1.6368872094361575e-01  -1.4131635436889398e-01  -1.5932144581946422e-01  -1.4932602574074075e-01  -1.0982447095092643e-01  -1.1528993158965498e-01  -1.4129814331768281e-01  -1.5641434127480547e-01  