<?xml version="1.0"?>
<VTKFile type="UnstructuredGrid"  version="0.1"  >
<UnstructuredGrid>
<Piece  NumberOfPoints="1297" NumberOfCells="2496">
<Points>
<DataArray  type="Float64"  NumberOfComponents="3"  format="ascii">0 0 0  0 1 0  1 1 0  1 0 0  1.1 -0.1 0  -0.1 -0.1 0  1.1 1.1 0  -0.1 1.1 0  0.3080116710934958 0.6620756635372465 0  0.3079429469355511 0.3378617713293364 0  0.6920592526983441 0.3378968745449629 0  0.6922333576012946 0.6613959020730658 0  0.4998500061294529 0.4997428803810828 0  0 0.9499999999997918 0  0 0.8999999999995836 0  0 0.8499999999996529 0  0 0.7999999999999998 0  0 0.7500000000003466 0  0 0.7000000000006934 0  0 0.6500000000010401 0  0 0.6000000000013869 0  0 0.5500000000017335 0  0 0.5000000000020587 0  0 0.4500000000018723 0  0 0.4000000000016644 0  0 0.3500000000014564 0  0 0.3000000000012483 0  0 0.2500000000010403 0  0 0.2000000000008322 0  0 0.1500000000006241 0  0 0.100000000000416 0  0 0.05000000000020799 0  0.04999999999989965 0 0  0.09999999999981467 0 0  0.1499999999997036 0 0  0.1999999999995579 0 0  0.2499999999994121 0 0  0.2999999999992664 0 0  0.3499999999991206 0 0  0.3999999999989749 0 0  0.4499999999988292 0 0  0.4999999999986943 0 0  0.5499999999988151 0 0  0.5999999999989468 0 0  0.6499999999990784 0 0  0.69999999999921 0 0  0.7499999999993417 0 0  0.7999999999994734 0 0  0.8499999999996051 0 0  0.8999999999997368 0 0  0.9499999999998684 0 0  1 0.04999999999989965 0  1 0.09999999999981467 0  1 0.1499999999997036 0  1 0.1999999999995579 0  1 0.2499999999994121 0  1 0.2999999999992664 0  1 0.3499999999991206 0  1 0.3999999999989749 0  1 0.4499999999988292 0  1 0.4999999999986943 0  1 0.5499999999988151 0  1 0.5999999999989468 0  1 0.6499999999990784 0  1 0.69999999999921 0  1 0.7499999999993417 0  1 0.7999999999994734 0  1 0.8499999999996051 0  1 0.8999999999997368 0  1 0.9499999999998684 0  0.9499999999997918 1 0  0.8999999999995836 1 0  0.8499999999996529 1 0  0.7999999999999998 1 0  0.7500000000003466 1 0  0.7000000000006934 1 0  0.6500000000010401 1 0  0.6000000000013869 1 0  0.5500000000017335 1 0  0.5000000000020587 1 0  0.4500000000018723 1 0  0.4000000000016644 1 0  0.3500000000014564 1 0  0.3000000000012483 1 0  0.2500000000010403 1 0  0.2000000000008322 1 0  0.1500000000006241 1 0  0.100000000000416 1 0  0.05000000000020799 1 0  -0.1 1.05000000000004 0  -0.1 1.000000000000079 0  -0.1 0.9500000000001624 0  -0.1 0.9000000000003032 0  -0.1 0.850000000000444 0  -0.1 0.8000000000005848 0  -0.1 0.7500000000007256 0  -0.1 0.7000000000008665 0  -0.1 0.6500000000010508 0  -0.1 0.6000000000012352 0  -0.1 0.5500000000014196 0  -0.1 0.500000000001539 0  -0.1 0.4500000000014195 0  -0.1 0.4000000000013 0  -0.1 0.3500000000011588 0  -0.1 0.3000000000010178 0  -0.1 0.2500000000008986 0  -0.1 0.2000000000007579 0  -0.1 0.1500000000006174 0  -0.1 0.1000000000005272 0  -0.1 0.05000000000040083 0  -0.1 2.671196597248127e-13 0  -0.1 -0.0499999999998666 0  -0.0500000000000906 -0.1 0  -1.730560139634463e-13 -0.1 0  0.04999999999975802 -0.1 0  0.09999999999961506 -0.1 0  0.1499999999994613 -0.1 0  0.199999999999302 -0.1 0  0.2499999999991446 -0.1 0  0.2999999999990088 -0.1 0  0.3499999999988296 -0.1 0  0.3999999999986936 -0.1 0  0.4499999999985143 -0.1 0  0.4999999999984002 -0.1 0  0.5499999999985247 -0.1 0  0.5999999999986493 -0.1 0  0.6499999999987955 -0.1 0  0.6999999999989417 -0.1 0  0.7499999999990659 -0.1 0  0.7999999999992116 -0.1 0  0.8499999999993573 -0.1 0  0.8999999999994526 -0.1 0  0.949999999999584 -0.1 0  0.9999999999997226 -0.1 0  1.049999999999861 -0.1 0  1.1 -0.0500000000000906 0  1.1 -1.730560139634463e-13 0  1.1 0.04999999999975802 0  1.1 0.09999999999961506 0  1.1 0.1499999999994613 0  1.1 0.199999999999302 0  1.1 0.2499999999991446 0  1.1 0.2999999999990088 0  1.1 0.3499999999988296 0  1.1 0.3999999999986936 0  1.1 0.4499999999985143 0  1.1 0.4999999999984002 0  1.1 0.5499999999985247 0  1.1 0.5999999999986493 0  1.1 0.6499999999987955 0  1.1 0.6999999999989417 0  1.1 0.7499999999990659 0  1.1 0.7999999999992116 0  1.1 0.8499999999993573 0  1.1 0.8999999999994526 0  1.1 0.949999999999584 0  1.1 0.9999999999997226 0  1.1 1.049999999999861 0  1.05000000000004 1.1 0  1.000000000000079 1.1 0  0.9500000000001624 1.1 0  0.9000000000003032 1.1 0  0.850000000000444 1.1 0  0.8000000000005848 1.1 0  0.7500000000007256 1.1 0  0.7000000000008665 1.1 0  0.6500000000010508 1.1 0  0.6000000000012352 1.1 0  0.5500000000014196 1.1 0  0.500000000001539 1.1 0  0.4500000000014195 1.1 0  0.4000000000013 1.1 0  0.3500000000011588 1.1 0  0.3000000000010178 1.1 0  0.2500000000008986 1.1 0  0.2000000000007579 1.1 0  0.1500000000006174 1.1 0  0.1000000000005272 1.1 0  0.05000000000040083 1.1 0  2.671196597248127e-13 1.1 0  -0.0499999999998666 1.1 0  0.2983501558693131 0.6488784805176928 0  0.2868295694747747 0.6313156679415922 0  0.2762007511526686 0.6117211652013136 0  0.2674084635777401 0.5904862199254862 0  0.2607785227822018 0.5683608947663397 0  0.2561925024727796 0.5457962862563451 0  0.2534700535545827 0.5229579500285298 0  0.2525989096472004 0.4999454509574467 0  0.2535039311760493 0.4769541437987879 0  0.2562046607212363 0.4540874747153866 0  0.2607931034667708 0.4314722479298831 0  0.267454176585984 0.4093523201751192 0  0.2762363752928552 0.3882085748764462 0  0.2868819702086715 0.3685656812978087 0  0.2983936916018358 0.3509410177263137 0  0.3227109713444593 0.3227624705503853 0  0.3392328307747702 0.308260198972519 0  0.3575832910542797 0.2948775214312205 0  0.3772191127494209 0.2834585495504429 0  0.3974698999062132 0.2741871384406801 0  0.4179738381256612 0.2669290545136662 0  0.4384312554800425 0.2614883221551186 0  0.4589434013804457 0.25768001555839 0  0.4794889177310159 0.255424888943954 0  0.5000351365574837 0.2546802325599571 0  0.5205887694016561 0.2554352772833414 0  0.5411486946665577 0.2577044454782431 0  0.5617271936023706 0.2615201073949779 0  0.582227087948243 0.2669736971633665 0  0.6028597197085845 0.274267551450839 0  0.6231707519657737 0.283595199205554 0  0.6426577804505162 0.295000129737924 0  0.660837272946099 0.3083250214504065 0  0.6772465660739345 0.3227562954195213 0  0.7015990108648812 0.3510623661933704 0  0.7128655851164887 0.3684822542076361 0  0.7234124900039248 0.3881473031705086 0  0.7320785647469932 0.4093819161435428 0  0.7385910907182605 0.4314949014523857 0  0.743037026586355 0.4540519215932207 0  0.7455717826110718 0.4767994921167035 0  0.746309693191348 0.4995885108469321 0  0.7453490513883514 0.5223196617571049 0  0.7427370952574143 0.5448997198195032 0  0.7383520338828379 0.567317170726458 0  0.7319845728903325 0.5893948355495864 0  0.7234612569426458 0.6107627146330576 0  0.7130153007907626 0.6305369932351044 0  0.7017897180587757 0.6480711228657747 0  0.6775784498257181 0.6764643275287223 0  0.6611923460140945 0.6909538995136886 0  0.6430758888861656 0.7043158163328291 0  0.6235686871713858 0.7158108148387565 0  0.6032094500867439 0.7252133076725333 0  0.5825005999809681 0.7325499676244394 0  0.561940112339216 0.7380193823626516 0  0.5413374547347273 0.7418317314458552 0  0.5207995729221845 0.7440808512332653 0  0.5003101853952611 0.744836542929025 0  0.4797988462640794 0.7441094983369099 0  0.4592570279866622 0.7418737313042111 0  0.4387449311015679 0.7380977731945013 0  0.4181747821967733 0.7326754324966709 0  0.3975425145671853 0.7254053822936462 0  0.377252892599881 0.7161463549676099 0  0.3576203924953613 0.7047415152640106 0  0.3392923764893385 0.6914142098971375 0  0.32275741305413 0.6770050679000237 0  0.3885871739553622 0.3056570323437746 0  0.2831268090241875 0.4426525048375481 0  0.3886739962711456 0.6939444346494459 0  0.283111022996279 0.5572538742415158 0  0.7128802508564266 0.5783871519705869 0  0.5918019426211909 0.7025441506442561 0  0.6107781006479187 0.3048790172039438 0  0.7178540870236266 0.4417910986723007 0  0.7217035699140719 0.5103925466890082 0  0.5504001510233364 0.2858582988058904 0  0.4499273535006715 0.2882197933214503 0  0.4489786960587981 0.7116871062860083 0  0.5307833393255944 0.7151795789944762 0  0.2779220456941801 0.4884017241666819 0  0.2934613333879961 0.3983176100980682 0  0.4899998070914841 0.2865704131048856 0  0.2992034710066951 0.6001097468538413 0  0.6995367317187667 0.3962185104052255 0  0.4900740790721829 0.7165574112345163 0  0.6317211730781577 0.6849481820237984 0  0.3487944199025881 0.3276282389360117 0  0.6515075664957812 0.3292379768452499 0  0.3494056863095136 0.6747016003563581 0  0.6949635855775693 0.6234814887739401 0  0.3117365637099518 0.356247880888627 0  0.3137003438406115 0.6427173932758711 0  0.6706595683673675 0.6634731429701048 0  0.6886962993365238 0.3558545663020568 0  0.3689131740179459 0.6849280402523505 0  0.3782626269816924 0.6644735574078529 0  0.3984596659565683 0.6711728676326341 0  0.3864111739083342 0.6424556234842046 0  0.407903339114934 0.6477366482163127 0  0.3939247439313839 0.6171048307485637 0  0.4201483916768244 0.6216007799581571 0  0.4031787517197504 0.5861535712797734 0  0.3674928932384255 0.6111781737630351 0  0.4354987782544346 0.5891173731092179 0  0.4151476787878104 0.54982312610985 0  0.3759983386342782 0.55345227997393 0  0.3915385085940694 0.5143230655354201 0  0.3530255645174101 0.5159771514413594 0  0.3666197152125041 0.481671284282338 0  0.4066649031808958 0.4755151603634694 0  0.3870454847815122 0.4426873934052731 0  0.4224904021700788 0.4351175580753477 0  0.4048614645498996 0.4035889020193798 0  0.4364254969736307 0.3880969721246759 0  0.3716547258476995 0.408585831466965 0  0.4151686332088744 0.367018512690695 0  0.4452391505922567 0.626505585121537 0  0.4680176083874784 0.5994559240264467 0  0.4852532575829728 0.6292404457239075 0  0.5019126785772624 0.6018343849345661 0  0.5179012906355328 0.6293765816441722 0  0.5349880932583646 0.6015949082164374 0  0.5502426549264858 0.6284666883459867 0  0.5678520161849914 0.6006773768895164 0  0.5830016644954488 0.6290757479378125 0  0.6012946285080073 0.5915009967335048 0  0.58755643477060
[...]
<PointData  Scalars="u"> 
<DataArray  type="Float64"  Name="u"  format="ascii">-3.6460037707549703e-18  -2.9577802438848960e-18  -7.3848724038830798e-18  -5.8940941378223270e-18  2.5693079996499553e-19  1.8928311406571961e-19  3.6117269180795871e-19  2.3010361630711003e-19  -1.2342868053304812e-01  -1.2321356703844116e-01  -1.2362038951266603e-01  -1.2386679924947910e-01  4.6709245635209388e-02  -5.4559006953466353e-18  -3.0137339327980168e-18  -3.2645155292118806e-17  -2.2581754028692337e-17  -1.4042009864166267e-17  -1.7889496561059291e-17  -2.3292924332907601e-17  -2.7722096803076262e-17  3.7161246162547201e-17  -9.4137638333451052e-17  -8.5539004930186500e-17  1.8966267526476372e-17  -3.9331865538985854e-17  -1.4535709892680295e-18  0.0000000000000000e+00  -4.5626868645290275e-18  -5.2532667427791063e-18  1.6940779090370935e-18  2.2128788652176368e-18  2.0285894917252761e-18  -3.6708493160639369e-18  -2.5776799077934950e-18  1.5282664074825153e-17  -4.3737886821145289e-18  1.9866571926061858e-17  -4.6438317978749487e-17  -4.0881814743332766e-18  1.2725875011452397e-17  -3.6620398731451877e-17  -8.7697703841607441e-19  7.2776191617337916e-18  -2.5655189819984336e-18  -3.7161994729851626e-17  -2.1185222585036712e-17  1.5812675560675666e-17  -4.4584911662628918e-17  -1.8335056089308734e-18  1.5114846611028741e-17  -1.4236922584956903e-17  -5.8529171425823054e-18  -5.5721301888568745e-19  -2.7251308129941564e-17  1.1869362740139388e-17  -3.9329811908807281e-17  -1.3157959577772885e-17  5.1873015377022171e-17  -1.0028265532246848e-17  -1.3141543088140376e-19  1.1732639077434346e-17  -5.2115907794707637e-17  -1.8324008961082896e-17  -4.0047096440097665e-17  -4.0761371040701830e-17  -5.9530619972594762e-19  -1.4730373468430153e-17  6.6190430693821769e-18  -6.2171488865172957e-18  1.5561655618542731e-17  1.0985730607521926e-17  -2.4760104927646294e-17  0.0000000000000000e+00  -2.0263771030284292e-17  5.2612760818431642e-18  3.3275326000345059e-18  -2.8535597944370310e-17  1.4253898270411718e-17  -6.1191553880202731e-17  -4.1461427135716232e-17  -1.5794495913529037e-18  -6.2138740356646258e-18  -3.1379313131453848e-17  -7.2993188006868791e-18  -5.5799719273419987e-17  -2.6778511913385547e-17  -3.9224877266963632e-18  2.8077927866799418e-17  1.0558334384072607e-19  -6.6666724546068018e-19  4.3059731189608017e-20  -4.1775698374613783e-19  -2.6167976087821557e-18  -6.5365605532122961e-18  -1.9318125714220963e-18  -2.0948726806560482e-18  -4.8980380374788868e-18  7.5648278711064706e-19  1.3644083742168391e-18  -9.3357102877888274e-18  -8.4012422118835085e-18  -1.7364491355632789e-18  -2.0470015284769358e-18  -2.7786375656758876e-18  -6.8568780221186151e-20  -6.8205101297584366e-19  -1.0354744685729418e-18  2.9922993757281714e-19  1.8707617493119160e-19  -3.4264796665280398e-19  -1.1962920391675025e-19  -1.3517250562442594e-19  -2.9492768508865167e-19  6.6777251089272681e-20  -5.8501502455070257e-19  2.8801570746157976e-19  6.6994156789615499e-19  1.4431312924119096e-18  -1.2238916963361312e-19  -4.9725152986004325e-18  -1.0683784485310211e-18  6.3876816998515364e-19  -3.6650449145245133e-18  -1.2565428896315685e-18  1.7994102375525263e-18  -9.2795131073398847e-19  -4.9477027702116280e-18  -2.1927516094795379e-18  -8.2181620496901248e-20  -3.8351069550730050e-18  -1.2898199081739139e-18  1.7620988837253166e-18  -2.2579187778309550e-19  -3.7370375749457046e-19  9.8401187077319925e-20  -9.8026117772440992e-19  -1.8025780926201684e-18  -8.1805425335161268e-19  -1.6059471498744337e-18  -1.7986724407033763e-18  -3.9386287050978582e-19  -5.1084182938534060e-18  -1.8042178548632534e-18  5.0574228111835755e-18  3.0054519919853418e-19  3.4498008344594047e-20  -1.8662000864927963e-19  -4.8873917852258916e-18  -4.4827689625150888e-18  -3.4024093136352820e-18  -4.6095243531447506e-18  -1.5971035607936371e-18  -7.7782773662305495e-19  -2.9869142867361143e-20  -4.3043855099508985e-19  -1.1147480386050381e-18  -3.5494465312760837e-20  -3.8858570619359007e-19  -5.1006754902740622e-19  1.9330188040735972e-18  9.8410142115623879e-19  -2.4616274437240976e-18  1.6583913033298958e-19  9.2183084953626498e-20  -3.0712064966860951e-19  -1.8688060882837009e-19  -1.9882949826723457e-18  -1.6724594107858341e-18  -6.3565808209137015e-18  -6.4207688966571879e-18  -8.8694365243474183e-19  -1.6606986490746234e-18  -2.9561882386791192e-18  -4.1192400140812358e-18  -3.3968358691368694e-18  -3.3051429194719838e-18  -1.6733160862646341e-19  2.8512698034586019e-18  4.9261431717702662e-19  -5.0543603581698696e-19  -1.2297445508177535e-01  -1.2174305733690438e-01  -1.2012927615207936e-01  -1.1802366074280936e-01  -1.1587193518613792e-01  -1.1404072918062788e-01  -1.1293898602959512e-01  -1.1240039194147175e-01  -1.1289939319897191e-01  -1.1409042497143046e-01  -1.1574866151952867e-01  -1.1779585320981648e-01  -1.1988626272380130e-01  -1.2163615303608648e-01  -1.2286448835582270e-01  -1.2370464693918312e-01  -1.2343643347321327e-01  -1.2243651159622679e-01  -1.2074310305500438e-01  -1.1871830403922171e-01  -1.1684397368505026e-01  -1.1513143473022802e-01  -1.1377869782446867e-01  -1.1303100201499117e-01  -1.1276475261501419e-01  -1.1301662638583918e-01  -1.1386276929653846e-01  -1.1511263255988892e-01  -1.1704762768550486e-01  -1.1900945779048382e-01  -1.2099869367584125e-01  -1.2268059556267930e-01  -1.2374549110177516e-01  -1.2403443772251675e-01  -1.2307926908195574e-01  -1.2195773695305362e-01  -1.2035809029620730e-01  -1.1827340905078010e-01  -1.1617149764400492e-01  -1.1437904340584054e-01  -1.1319954358625489e-01  -1.1279121087360414e-01  -1.1315535904793550e-01  -1.1426671605048669e-01  -1.1606243955604684e-01  -1.1825867359561498e-01  -1.2040164010419122e-01  -1.2208135011209351e-01  -1.2327136581158739e-01  -1.2435828642104783e-01  -1.2406141022767220e-01  -1.2303749045337245e-01  -1.2134251251417973e-01  -1.1937624521960241e-01  -1.1738084327301343e-01  -1.1543730316023540e-01  -1.1420240128700432e-01  -1.1333674907258257e-01  -1.1302174217219572e-01  -1.1328300736627600e-01  -1.1406342074489215e-01  -1.1541873652348553e-01  -1.1709482379958949e-01  -1.1895509022706699e-01  -1.2094989343107740e-01  -1.2262325552011649e-01  -1.2359673507800188e-01  -1.2388566746353719e-01  -7.7999860021169987e-02  -7.4866895126229030e-02  -7.8149334472134485e-02  -7.5051143932378730e-02  -7.9040275527609297e-02  -7.6684631459995850e-02  -7.8524624704128923e-02  -7.6753122129952570e-02  -7.2802610246548202e-02  -7.2538384113672111e-02  -7.0429758442031976e-02  -7.1137980701524911e-02  -7.0484104393178024e-02  -7.2133093749014096e-02  -8.2004959573895184e-02  -6.6344398482881747e-02  -7.7120141197360173e-02  -7.8165869802499399e-02  -6.9662732645666525e-02  -8.2175044806232653e-02  -8.3528478488413840e-02  -8.2935285194915512e-02  -8.5208683308436298e-02  -8.4623033032781292e-02  -8.9800381403108281e-02  -8.8142605592764572e-02  -9.0819447808016054e-02  -9.0785845896623155e-02  -8.1349449323971798e-02  -6.0750030176769762e-02  -5.5255599932163571e-02  -3.9287696779521035e-02  -3.1614648193992741e-02  -1.6559928855907520e-02  -6.8610586896125040e-03  3.9146142116848583e-03  -2.9945958674138681e-02  1.5589787375720601e-02  2.2257689433050076e-02  1.4206936100502714e-03  1.6814145880366282e-02  -6.8903705256507138e-03  2.0557809665846527e-03  2.3482525450715230e-02  6.6371309315834143e-03  2.0948409768837061e-02  5.0113720394356844e-04  4.9449689382135356e-03  -1.5149727816988506e-02  -1.6118901667843782e-02  -1.6144658035845481e-03  1.8766425964922038e-02  3.2651298855458353e-03  2.0231439102511028e-02  2.5834338629470064e-03  1.7046103387841485e-02  -2.1511711889261194e-03  8.7491160676471200e-03  -1.3218307267129930e-02  -7.3646102097626879e-04  1.8704535077081461e-02  1.1501258539038928e-03  1.7319530111854296e-02  -1.8203638920448392e-02  -2.2857016922898894e-02  -3.1971874632154305e-02  -2.9197075305390140e-02  -2.3159402547550310e-02  -3.6247062727185204e-02  -1.4694075516149183e-02  6.1139441903226184e-03  -5.0925076603743555e-02  -3.8275698329073966e-02  -2.6097576496972658e-02  -3.1347052992749938e-02  -1.9005810626919799e-02  8.2862974143154949e-03  -2.2241371493378823e-02  2.3911609297038146e-03  2.6486910552553925e-02  1.3599789886599782e-02  -6.6680552984451696e-03  -1.5979658054597172e-03  2.2733640156754411e-02  1.7818130801636990e-03  -1.7364213300741723e-02  -1.8428538696573963e-02  -6.3114417161888540e-03  -3.6239347119436556e-02  -4.1904130757688125e-02  -5.4366766548516826e-02  -5.4751269695000680e-02  3.2739417215037696e-02  -4.3349616240752981e-02  -4.0005130822036071e-02  -4.9766614234219859e-02  -3.6264527875976602e-02  -5.7956449622996051e-02  -5.8825206405845140e-02  -4.8400641664336844e-02  -2.5019836571226434e-02  -4.8136791980865359e-02  -5.8276631584864791e-02  -4.0711982238652605e-02  -1.7042388994913549e-02  -3.5615298452108625e-02  -3.8723096833102738e-02  -2.2804327620641787e-02  -4.2111557739221775e-02  -5.3460398990235795e-02  -5.6363581972995000e-02  -4.7724083875421777e-02  -5.2894605653294659e-02  -4.1991214211469986e-02  -6.3408702823866098e-02  -2.2005068751827367e-02  3.6410035537309753e-02  -5.8174279172734787e-02  3.6369526313952488e-02  -5.5303424775941098e-03  -3.2842956941681517e-02  -1.0160249320801527e-02  -3.4643246759712289e-02  -5.3681342011207715e-02  -5.7030922634363782e-02  -4.1956022045689802e-02  -2.1337373125632986e-02  -3.8144831291571854e-02  -4.8067348308008920e-02  2.5340936165228204e-02  -6.7293747854386021e-02  -7.0454235617249658e-02  -2.4791094769686016e-02  -4.5732600386498824e-02  -4.0854372813436499e-02  -2.9425175174095135e-02  -4.0833533252048929e-02  -5.6286041202786977e-02  -4.1039658058793699e-02  -5.1984476200946692e-02  -5.9326680698297836e-02  -6.5486073029419722e-02  -7.4599345595735944e-02  -8.0501714695908361e-02  -5.3286971232277706e-02  -6.8425966204992306e-02  -7.0620802705436081e-02  -6.5163861757420852e-02  -7.7099513232052802e-02  -8.4382883633051506e-02  -7.2760236206741269e-02  -4.8633811763929051e-02  -2.6238575330704603e-02  -7.7913173538924255e-02  -7.5215882945882218e-02  -6.9865610206371082e-02  -8.2051555769402720e-02  -6.8429765354712013e-02  -6.8871645883430505e-02  -7.5873372685393375e-02  -8.4475853159414152e-02  -6.7212785126193789e-02  -7.0641414626529231e-02  -7.7604105082132294e-02  -5.8902533717807792e-02  -7.4148288789354921e-02  -5.4866676341763169e-02  -7.2500228158623142e-02  -8.0102003935150365e-02  -8.5516017268565017e-02  -7.6110853023224304e-02  -5.9666441679591641e-02  -4.0517129026777905e-02  -6.7569010032725585e-02  -7.5841127622260265e-02  -6.0117409480100914e-02  -9.0144537608476127e-02  -9.0542643385094393e-02  -9.0669498938383969e-02  -9.0731259763416588e-02  -7.4139491335440760e-02  2.7533222964896284e-02  3.9384260725564627e-02  -5.2044755168179760e-02  -7.7272272326707775e-02  -7.9064129884249199e-02  -6.8312638421664212e-02  -8.5377191182046425e-02  -7.1523856962889695e-02  -6.3296144235940016e-02  -4.5757676107039062e-02  -2.9160089690434092e-02  -7.0284276316114405e-02  -3.0921620638671411e-02  3.4140094895011665e-02  3.3557020427229370e-02  1.0795327156726455e-02  -4.8553302456018743e-02  -6.2493523195017588e-02  -4.8438431892937811e-02  -5.2771834579044739e-02  -4.7794939822050436e-02  -7.4927338104391270e-02  -7.4475402494030771e-02  3.1071823506042460e-02  -7.0176119291685740e-02  -5.0780022232728664e-02  -5.3912371526962877e-02  -1.9860457883117171e-02  -6.3772467019606940e-02  -2.4890049778149168e-02  9.9967134139006177e-03  -7.6760843238479204e-02  4.1836005650548347e-02  -1.0681171259316814e-02  -7.9282576568125679e-02  -2.7713700431474163e-02  -4.9162251182979545e-02  -5.2507449915281362e-02  2.8193554423107024e-02  -7.5636745694320190e-02  -5.7927566273622916e-02  -4.9850848928851450e-02  4.3609870423593572e-02  -5.6011950165757406e-02  -4.1826305472722682e-02  3.9549696413268512e-02  -1.8502346365435757e-02  -4.7242251016587494e-02  4.3321058054138856e-02  -2.5139464796750315e-02  -5.9999439886603445e-02  -6.1748242025311907e-02  -3.6340457553239107e-02  -1.6968976446321647e-02  -4.9073024745698982e-02  -7.8002214277956339e-02  -2.7112184641027708e-02  -9.7277427632528612e-02  -9.7620032069246673e-02  -9.7505349904174712e-02  -9.7903960523820069e-02  -5.6569067250038851e-02  -7.0052246519917399e-02  -6.1025090109552815e-02  -6.7466695401745061e-02  -5.1842086631108640e-02  -1.2184108546376521e-02  -6.6025114383594430e-02  -6.0361670496650185e-02  -3.2796554452746693e-02  -6.9805703481703113e-03  -1.7439654716913586e-02  -4.9179216899494825e-03  -6.2565460680646320e-02  -6.8209726500178943e-03  -4.5286657327377820e-02  -1.4839969562451796e-03  4.2191251134553777e-02  -4.1473393184894194e-02  -1.8673347528241135e-02  -3.3255435200428979e-02  -4.9945406438976943e-02  -1.3332822440980890e-02  -7.0879572565378567e-03  3.5168398395828318e-02  -7.5785468081598265e-02  -1.3650293290257282e-01  -1.3668415685017524e-01  -1.4190522740761211e-01  -1.4787905276092031e-01  -1.4223482324881431e-01  -1.4896535983829012e-01  -1.3629870015241868e-01  -1.4128858844833353e-01  -1.3634013893995561e-01  -1.4160457444014812e-01  -1.4801653541558932e-01  -1.4763381078012600e-01  -7.3271219538064244e-02  -6.4954537169691254e-02  -7.7906598672774829e-02  -6.7741114467323019e-02  -1.3632388543522969e-01  -1.4498601243812317e-01  -1.4516544551679331e-01  -1.3656157302719985e-01  -1.5135103863806107e-01  -1.5757939655700470e-01  -1.3805428353097085e-01  -1.3764726909622893e-01  -1.4729910847925445e-01  -1.6421193110733737e-01  -1.7148284100848415e-01  -1.6951712446220785e-01  -1.7905815468402314e-01  -1.7872539897740850e-01  -4.7175859785299819e-02  -4.4620472968851417e-02  -4.6520163911613795e-02  -4.5298609122401863e-02  -8.0558394262663729e-02  -7.9606378483260437e-02  -8.2817035565922667e-02  -1.8282812526087297e-01  -1.8229704212722067e-01  -1.7446750058860172e-01  -1.6880446833961640e-01  -7.8819746120178183e-02  -8.3208205688866346e-02  -8.1239794939339499e-02  -7.2490070437163628e-02  -7.5306017096020514e-02  -7.1542794118411426e-02  -8.7969754265269276e-02  -5.2863657436873254e-02  -1.7417764340642364e-01  -1.6963902988449275e-01  -6.0765024688898460e-02  -5.2951866456542596e-02  -6.0458914897717458e-02  -1.5220350855615455e-01  -1.5681071133659030e-01  -1.6594847898516990e-01  -1.7217556138503762e-01  -1.7730419632434249e-01  -1.8083296076673608e-01  -1.7635541464252094e-01  -1.8201751721578019e-01  -1.7998497032244554e-01  -1.8119320089993571e-01  -1.5245397967701954e-01  -1.5773703999520022e-01  -1.6625161301121777e-01  -1.7243616667015343e-01  -1.6823355777887777e-01  -1.7753542505487954e-01  -1.8103653676798212e-01  -1.8225567969922099e-01  -1.8017675434823494e-01  -1.8150984536655268e-01  -1.4198387154093761e-01  -1.5119551167497150e-01  -1.5733944114037710e-01  -1.6402928016092577e-01  -1.7133914723764895e-01  -1.6930675791928962e-01  -1.7865541734141185e-01  -1.7839272473996970e-01  -1.8250637027894895e-01  -1.8218234051981985e-01  -1.3539731786135412e-01  -1.3541973225112966e-01  -1.3997804492350338e-01  -1.4035861305740391e-01  -1.7880466455880295e-01  -1.7921293783936390e-01  -1.7714878252716953e-01  -1.8013550482248394e-01  -1.7916509750021664e-01  -1.7751944911309858e-01  -7.9684808504619023e-02  -1.7771867934797364e-01  -1.7996515318315659e-01  -1.8019418965168199e-01  -1.7804839794524771e-01  -1.7941629367900808e-01  -1.8148435945756222e-01  -1.4203506012867778e-01  -1.6844120154327066e-01  -1.6870831695073599e-01  -6.5477775430522092e-02  -6.1627142876002190e-02  -6.5467446829541254e-02  -1.6968514733575865e-01  -1.7052605392603021e-01  -1.6611756909432154e-01  -1.6210340388473990e-01  -1.7132683343569252e-01  -1.7376979283899541e-01  -1.7126188773204454e-01  -1.7367668793116076e-01  -1.6515925529699566e-01  -1.7238430982878583e-01  -1.5931381331101518e-01  -1.6719489883368999e-01  -1.5259610724595724e-01  -1.5913760707647320e-01  -1.6521995370299300e-01  -1.7152798181468054e-01  -1.5867039792172297e-01  -1.6504735174399626e-01  -1.5138386189280817e-01  -1.5831946012962658e-01  -1.4436251421972976e-01  -1.5254831324195831e-01  -1.3837856343798971e-01  -1.4832149734201483e-01  -1.3463446334500623e-01  -1.4638420895251114e-01  -1.3319326399045953e-01  -1.4677243650624491e-01  -1.4508490825827763e-01  -1.5306253500515038e-01  -1.3883570358403616e-01  -1.4876135183782080e-01  -1.3497430869255964e-01  -1.4676776530272517e-01  -1.3332883323221359e-01  -1.4705560224102454e-01  -1.6890126916665107e-01  -1.6981363320251250e-01  -1.6806594340113781e-01  -1.6853707958387659e-01  -1.6896288500493586e-01  -1.6919426400001322e-01  -1.3496932870801120e-01  -1.4957734938818493e-01  -1.3834008141993842e-01  -1.5403201758231111e-01  -1.4325482382502075e-01  -1.3499204269105203e-01  -1.4972930826007971e-01  -1.3817532831163873e-01  -1.5421154284726943e-01  -1.4330125808011848e-01  -1.8083963937580821e-01  -1.7492124737371936e-01  -1.7297242754629866e-01  -1.5631100314084945e-01  -1.6122339135930847e-01  -1.5589737350430294e-01  -1.6069258525889274e-01  -1.5083194337611328e-01  -1.4659777929972495e-01  -1.5021151273278255e-01  -1.4720902270435471e-01  -1.5367390202722581e-01  -1.1302107459279688e-01  -1.5302424213058838e-01  -1.5777894702612610e-01  -1.4953336627487671e-01  -1.5250476827349041e-01  -1.1329349039744409e-01  -1.5930591963073648e-01  -1.4763763406074851e-01  -1.6267524666758004e-01  -1.5148475928814237e-01  -1.6215598916963714e-01  -1.4810148691815905e-01  -1.5002294318965198e-01  -1.4328511550376732e-01  -1.5855897763661256e-01  -1.4929881623523461e-01  -1.6387487465835110e-01  -1.2338246246844886e-01  -1.7412773974126911e-01  -5.2271779614676314e-02  -1.6256604305269839e-01  -1.7570470613336317e-01  -1.2735358763865209e-01  -1.3982519578745070e-01  -1.5217383323169692e-01  -1.2662103848892745e-01  -1.6134933629741383e-01  -1.6166384646391649e-01  -1.5865496312886748e-01  -1.6882523095215377e-01  -1.6405332483715654e-01  -1.7003259986277230e-01  -1.6511983422388760e-01  -1.6366707942137068e-01  -1.5847122087133522e-01  -1.7013519613404615e-01  -1.5943942534214625e-01  -1.5390750503050088e-01  -1.5427623489141012e-01  -1.5008739822301301e-01  -1.5115759665333309e-01  -1.4810905384289527e-01  -1.4958266880997861e-01  -1.5900615350630387e-01  -1.5939451909109731e-01  -1.4866101597074718e-01  -1.6331141356907328e-01  -1.5655982754316888e-01  -1.5276074626436856e-01  -1.2595636657204737e-01  -1.4932295125849829e-01  -1.4495605506090153e-01  -1.4710425063184865e-01  -1.3729426421426752e-01  -4.7922432327978916e-02  -5.5762045654958688e-02  -5.2072972723397531e-02  -1.5555776517184358e-01  -1.4946478663577378e-01  -1.7736821341766720e-01  -1.6682435422825351e-01  -1.7187834680816685e-01  -1.3403659784251151e-01  -1.3435938702676009e-01  -1.3718075696900239e-01  -1.5566444896304696e-01  -1.6295562074712225e-01  -1.6725105307479632e-01  -1.6236490574470638e-01  -1.5138172595010835e-01  -1.5499038360429301e-01  -1.5554523237136403e-01  -1.5255457538604206e-01  -1.4807160569717537e-01  -1.4992622236855663e-01  -1.3973356294610845e-01  -1.4693707702848441e-01  -1.4830758147586942e-01  -1.4952105371090876e-01  -1.4452987819526589e-01  -1.5190988027364405e-01  -1.4279715606702836e-01  -1.5412818517113841e-01  -1.5395121185252808e-01  -1.5910339029419054e-01  -1.5657106584496822e-01  -1.6504844198956622e-01  -1.5770313265371344e-01  -1.7112332872204808e-01  -1.5579357392132978e-01  -1.7037972503073207e-01  -1.5444520484970872e-01  -1.5968960326038023e-01  -1.5145863673302640e-01  -1.7028034899693015e-01  -1.6649793868958071e-01  -1.4183966185060762e-01  -1.4189460354539643e-01  -1.5387421954124583e-01  -1.5091614837911962e-01  -1.6646312761801707e-01  -1.4800963297775530e-01  -1.6681621748344128e-01  -1.3623277329588007e-01  -1.4713900048979833e-01  -1.5169039732964446e-01  -1.6665229067033224e-01  -1.4477943613942929e-01  -1.6374977671540819e-01  -1.4609525246861488e-01  -1.1754901408057156e-01  -1.2275052677610153e-01  -1.4661808921340713e-01  -1.53907669599964