<?xml version="1.0"?>
<VTKFile type="UnstructuredGrid"  version="0.1"  >
<UnstructuredGrid>
<Piece  NumberOfPoints="1297" NumberOfCells="2496">
<Points>
<DataArray  type="Float64"  NumberOfComponents="3"  format="ascii">0 0 0  0 1 0  1 1 0  1 0 0  1.1 -0.1 0  -0.1 -0.1 0  1.1 1.1 0  -0.1 1.1 0  0.3097274668733953 0.6665222788359229 0  0.3096861756800492 0.3323560484451353 0  0.6895930153282743 0.3327560621057827 0  0.6895458227649861 0.6659637017693082 0  0.4994742818943793 0.4993463016436905 0  0 0.9499999999997918 0  0 0.8999999999995836 0  0 0.8499999999996529 0  0 0.7999999999999998 0  0 0.7500000000003466 0  0 0.7000000000006934 0  0 0.6500000000010401 0  0 0.6000000000013869 0  0 0.5500000000017335 0  0 0.5000000000020587 0  0 0.4500000000018723 0  0 0.4000000000016644 0  0 0.3500000000014564 0  0 0.3000000000012483 0  0 0.2500000000010403 0  0 0.2000000000008322 0  0 0.1500000000006241 0  0 0.100000000000416 0  0 0.05000000000020799 0  0.04999999999989965 0 0  0.09999999999981467 0 0  0.1499999999997036 0 0  0.1999999999995579 0 0  0.2499999999994121 0 0  0.2999999999992664 0 0  0.3499999999991206 0 0  0.3999999999989749 0 0  0.4499999999988292 0 0  0.4999999999986943 0 0  0.5499999999988151 0 0  0.5999999999989468 0 0  0.6499999999990784 0 0  0.69999999999921 0 0  0.7499999999993417 0 0  0.7999999999994734 0 0  0.8499999999996051 0 0  0.8999999999997368 0 0  0.9499999999998684 0 0  1 0.04999999999989965 0  1 0.09999999999981467 0  1 0.1499999999997036 0  1 0.1999999999995579 0  1 0.2499999999994121 0  1 0.2999999999992664 0  1 0.3499999999991206 0  1 0.3999999999989749 0  1 0.4499999999988292 0  1 0.4999999999986943 0  1 0.5499999999988151 0  1 0.5999999999989468 0  1 0.6499999999990784 0  1 0.69999999999921 0  1 0.7499999999993417 0  1 0.7999999999994734 0  1 0.8499999999996051 0  1 0.8999999999997368 0  1 0.9499999999998684 0  0.9499999999997918 1 0  0.8999999999995836 1 0  0.8499999999996529 1 0  0.7999999999999998 1 0  0.7500000000003466 1 0  0.7000000000006934 1 0  0.6500000000010401 1 0  0.6000000000013869 1 0  0.5500000000017335 1 0  0.5000000000020587 1 0  0.4500000000018723 1 0  0.4000000000016644 1 0  0.3500000000014564 1 0  0.3000000000012483 1 0  0.2500000000010403 1 0  0.2000000000008322 1 0  0.1500000000006241 1 0  0.100000000000416 1 0  0.05000000000020799 1 0  -0.1 1.05000000000004 0  -0.1 1.000000000000079 0  -0.1 0.9500000000001624 0  -0.1 0.9000000000003032 0  -0.1 0.850000000000444 0  -0.1 0.8000000000005848 0  -0.1 0.7500000000007256 0  -0.1 0.7000000000008665 0  -0.1 0.6500000000010508 0  -0.1 0.6000000000012352 0  -0.1 0.5500000000014196 0  -0.1 0.500000000001539 0  -0.1 0.4500000000014195 0  -0.1 0.4000000000013 0  -0.1 0.3500000000011588 0  -0.1 0.3000000000010178 0  -0.1 0.2500000000008986 0  -0.1 0.2000000000007579 0  -0.1 0.1500000000006174 0  -0.1 0.1000000000005272 0  -0.1 0.05000000000040083 0  -0.1 2.671196597248127e-13 0  -0.1 -0.0499999999998666 0  -0.0500000000000906 -0.1 0  -1.730560139634463e-13 -0.1 0  0.04999999999975802 -0.1 0  0.09999999999961506 -0.1 0  0.1499999999994613 -0.1 0  0.199999999999302 -0.1 0  0.2499999999991446 -0.1 0  0.2999999999990088 -0.1 0  0.3499999999988296 -0.1 0  0.3999999999986936 -0.1 0  0.4499999999985143 -0.1 0  0.4999999999984002 -0.1 0  0.5499999999985247 -0.1 0  0.5999999999986493 -0.1 0  0.6499999999987955 -0.1 0  0.6999999999989417 -0.1 0  0.7499999999990659 -0.1 0  0.7999999999992116 -0.1 0  0.8499999999993573 -0.1 0  0.8999999999994526 -0.1 0  0.949999999999584 -0.1 0  0.9999999999997226 -0.1 0  1.049999999999861 -0.1 0  1.1 -0.0500000000000906 0  1.1 -1.730560139634463e-13 0  1.1 0.04999999999975802 0  1.1 0.09999999999961506 0  1.1 0.1499999999994613 0  1.1 0.199999999999302 0  1.1 0.2499999999991446 0  1.1 0.2999999999990088 0  1.1 0.3499999999988296 0  1.1 0.3999999999986936 0  1.1 0.4499999999985143 0  1.1 0.4999999999984002 0  1.1 0.5499999999985247 0  1.1 0.5999999999986493 0  1.1 0.6499999999987955 0  1.1 0.6999999999989417 0  1.1 0.7499999999990659 0  1.1 0.7999999999992116 0  1.1 0.8499999999993573 0  1.1 0.8999999999994526 0  1.1 0.949999999999584 0  1.1 0.9999999999997226 0  1.1 1.049999999999861 0  1.05000000000004 1.1 0  1.000000000000079 1.1 0  0.9500000000001624 1.1 0  0.9000000000003032 1.1 0  0.850000000000444 1.1 0  0.8000000000005848 1.1 0  0.7500000000007256 1.1 0  0.7000000000008665 1.1 0  0.6500000000010508 1.1 0  0.6000000000012352 1.1 0  0.5500000000014196 1.1 0  0.500000000001539 1.1 0  0.4500000000014195 1.1 0  0.4000000000013 1.1 0  0.3500000000011588 1.1 0  0.3000000000010178 1.1 0  0.2500000000008986 1.1 0  0.2000000000007579 1.1 0  0.1500000000006174 1.1 0  0.1000000000005272 1.1 0  0.05000000000040083 1.1 0  2.671196597248127e-13 1.1 0  -0.0499999999998666 1.1 0  0.2983088494989351 0.6544441684182443 0  0.2871681762728584 0.6365743478177704 0  0.2792408474132655 0.6157705259045052 0  0.2736273186433946 0.5933199434426769 0  0.2696675609849185 0.5701739239979665 0  0.2669656752068227 0.5467482691703768 0  0.2653192325071421 0.523150314321405 0  0.2648145090928073 0.4994616879200265 0  0.2653901923608015 0.4757692354921277 0  0.2669693672403533 0.4521294836392362 0  0.269654527523028 0.4286703173860017 0  0.273652430383967 0.4055399766337712 0  0.2792972015140864 0.383154112005112 0  0.2872123162769195 0.3622931010449801 0  0.2984202434292185 0.3443797200566879 0  0.3215931812846642 0.3148195035783032 0  0.3372142706299703 0.2993944925557416 0  0.3559738962718436 0.2868930537053475 0  0.3762069987936721 0.2767505240594694 0  0.3968623680366837 0.2685555024001731 0  0.4175905231760206 0.2620045318701318 0  0.4381647311445881 0.2569149435761507 0  0.4587050145233489 0.2531186202257227 0  0.4792779323768708 0.250847414309322 0  0.4998538578663845 0.2501110077729772 0  0.5204220677557925 0.2509057317852056 0  0.5409895616744836 0.2531972745535558 0  0.5615929801666069 0.2569330666244237 0  0.5821930972687696 0.2620769792795334 0  0.6030453267065583 0.2686966987441886 0  0.6237687264282943 0.2769432902466356 0  0.6438362896899382 0.2871457375058162 0  0.6623740794403891 0.2996367440686873 0  0.6777947683933598 0.3150330922450471 0  0.7009775603283193 0.3448379196830985 0  0.7119024524325924 0.3625173613925039 0  0.7197150941556372 0.3833331122024909 0  0.7252102320896712 0.4057236755833684 0  0.7290544696015068 0.4288201688378102 0  0.7316114239974918 0.4522040885485498 0  0.7330427747218375 0.4757158229301587 0  0.7334420711045679 0.4992847207964275 0  0.7327635987524362 0.5228307536004572 0  0.7312399862870486 0.5462513793552639 0  0.7287457366972415 0.5695853136426969 0  0.7250066227212653 0.5926825129173058 0  0.7196057825060916 0.6151608724024096 0  0.7118648855836845 0.6360500849219306 0  0.7009873053192366 0.6538155130204276 0  0.6778501125254629 0.6835804745214449 0  0.662457693118773 0.6989666477556575 0  0.6439621586281808 0.7115027234059438 0  0.6238733905075287 0.7217273523491914 0  0.6031063192186089 0.7300114726311374 0  0.5821965164386164 0.7366663852016808 0  0.5615607126094005 0.7418278748824785 0  0.5409379724532486 0.7455474719426751 0  0.5203844809012654 0.7477987560472298 0  0.4998732983044712 0.7485671834485412 0  0.4793368626445488 0.7478353467405613 0  0.4587735114032245 0.7455568745621752 0  0.4382366088055967 0.7417871547009105 0  0.4175728244504057 0.7367271498576741 0  0.3967373065622112 0.7302057356095228 0  0.3760642348650576 0.7220406947939246 0  0.3558709958565739 0.7119129922319911 0  0.3371586674571793 0.6994037671374672 0  0.3215802770427513 0.6839855782588663 0  0.3878006357786604 0.2995566100505271 0  0.291197969657403 0.439768284406293 0  0.3877130028434893 0.6992039543346283 0  0.2911960903230879 0.5591410644315531 0  0.7058572527003645 0.5815900439180469 0  0.5916528922988564 0.7071164922756327 0  0.611079209642397 0.2988858503969292 0  0.7090327160960762 0.4390807044237544 0  0.71088933045061 0.5105572353050998 0  0.5502358509122933 0.2812551186160928 0  0.4496549897952519 0.2835853238667747 0  0.4484855804923675 0.7154714532400697 0  0.5303564312156971 0.7188989949379337 0  0.2880221597636403 0.487453259740266 0  0.2972784837221254 0.3933716306289713 0  0.4897755124676698 0.2820679532361194 0  0.3029798044456695 0.6041019618650775 0  0.6954633533286385 0.3913317371037862 0  0.489631304814095 0.7202344449173257 0  0.6319534968179651 0.6910659780876601 0  0.3481116392232801 0.3202856091823543 0  0.6515521597589363 0.3221345937117167 0  0.3484791975068089 0.6812739883782819 0  0.6926058979499763 0.6284850711088312 0  0.3125938291856379 0.3502897336841718 0  0.3146126247840513 0.6476111151925626 0  0.6696686545735522 0.6695747661851887 0  0.687212387858644 0.3501888965695352 0  0.367791611826531 0.6910001005100017 0  0.3778560609177279 0.669712686314344 0  0.3979723189598676 0.6758978475732637 0  0.386677985630605 0.6469830445199873 0  0.4079317390036811 0.651907712921274 0  0.3949332048894237 0.6208537624393824 0  0.4206783909519732 0.6250681412338193 0  0.4048550695839511 0.5889087867848274 0  0.3691416209882683 0.6151350023185272 0  0.4363821862145612 0.5916309958574029 0  0.4171648639489808 0.5512600897334593 0  0.3793649532428922 0.5552729196082539 0  0.394856795974302 0.5144783423145315 0  0.3581574629972527 0.5162436769535738 0  0.3710628555006907 0.4803924805846391 0  0.4093141453214153 0.4741108716098113 0  0.3899464310920356 0.4399060133854165 0  0.42411869075097 0.4323568717230881 0  0.4063044826507787 0.3996918667184199 0  0.4370104022266441 0.3841981777823873 0  0.3740278439917385 0.4044114798368837 0  0.4156109629953135 0.3624017515303239 0  0.4453976291782933 0.6297569936715569 0  0.4681691067029807 0.6020076459325131 0  0.4849847151450762 0.6322867241385423 0  0.5014771960706317 0.6043648752742671 0  0.5173003132023274 0.6324440959753385 0  0.5339860763655618 0.6042281714972644 0  0.5493034505185803 0.6317430604973793 0  0.5662626477147418 0.6035718564848771 0  0.5817721199885094 0.6328060538020227 0  0.5988319884814107 0.5945543544220568 0  0.584776
[...]
<PointData  Scalars="u"> 
<DataArray  type="Float64"  Name="u"  format="ascii">1.3234057588612225e-18  -1.1869105532900597e-18  -3.5539008102270041e-18  -4.8248816407558337e-18  2.3267237363991205e-19  -4.6147540468075675e-20  1.5324519025600067e-19  9.3072298955704756e-20  -1.2350490507405143e-01  -1.2301208195227681e-01  -1.2363985881350914e-01  -1.2426639873732320e-01  4.7996104333294383e-02  -6.2232097211781367e-18  -4.1539101933824713e-18  -2.0222733177935315e-17  -2.8873327338667831e-17  7.1386022049389541e-19  -1.7679672149848709e-17  -2.1499281716951543e-17  -3.3463174914860382e-17  2.7453354973947506e-17  -5.0573512532564373e-17  -1.8780020029294941e-17  8.5598990311789299e-18  -2.5555680079147103e-17  -1.0249971691195120e-17  1.5005498567821121e-17  -7.3560990831051584e-18  2.4296560875947542e-18  -8.5564975368050535e-19  2.9800104081278117e-18  -1.1225010605841983e-18  -1.5764095722609063e-18  -1.2508724090168853e-17  1.0332787957755407e-17  4.4812586602999946e-18  -6.5492877520034907e-18  -1.4220536720718974e-17  -1.3488333189458329e-17  1.1980574082492469e-18  -2.1246102976541310e-17  3.6175832352705279e-18  1.1211879940280087e-17  -3.4461105783190447e-18  -4.9232645383949174e-18  -1.8756432542879533e-17  1.4846593547324214e-17  -1.8588017017235341e-17  -1.0128650048972921e-17  -9.9106715314052907e-19  5.7414755954190939e-18  1.4131309878342613e-17  -4.3078549182551607e-19  -2.7267879461932029e-18  -6.3986509901906014e-18  -4.3917919876721471e-18  -3.8511182664119453e-17  7.3170363117858018e-18  -1.0705946555363114e-17  1.1053650055649415e-18  -7.9601737155061605e-18  -3.4140914737053734e-17  -1.7876000020836956e-18  -2.2513684028444499e-17  4.9354731344638686e-18  -2.9294410796761652e-18  8.9031083446441012e-18  6.5834697660994711e-18  -6.8756087986073820e-19  4.2643157518093027e-18  2.0708010909978550e-17  -1.7775860206914480e-17  -1.3918548050145903e-17  6.6332486751553777e-19  7.5656667137013406e-18  -2.2776828959500311e-19  -2.5160928316212526e-17  1.1968581024970684e-17  -4.6861777188159863e-17  -1.5085968679831631e-17  -7.8999812766220786e-18  1.5940966502657973e-18  -7.2174748126013790e-18  -6.9020478323186517e-18  -4.6526617890781404e-17  -1.8458069654186081e-18  -7.9187902943298802e-18  1.0545833553897607e-17  8.9489685514930839e-20  -3.3603077692139953e-19  -4.9549000450640283e-19  -8.1313146937818926e-19  -2.3042101646315783e-18  -3.7373370726328931e-18  -7.8091379657679845e-19  -1.5703638920873177e-18  -4.5158898995374300e-18  -1.4258215057236859e-18  3.7106707474133236e-20  -3.3161404812624079e-18  -2.3326376046205875e-18  -3.9051040075557622e-20  -2.4642153664522945e-18  -2.0946652418172076e-18  7.1751149857965075e-19  1.7268576531022372e-19  -1.6401925706828776e-20  1.3109751003125586e-19  2.7051078315808029e-19  2.6011288947963859e-19  -1.8637412923656031e-20  4.6021231231096060e-20  1.1810051591370129e-19  9.6063810697846139e-20  -7.1565737209022125e-19  -1.1602776937225734e-18  1.2950654654197676e-18  1.3746223119701239e-18  -1.4553846295756124e-18  -2.3005595688487754e-18  -1.3334539051974632e-18  -8.5100385577934162e-19  -2.1457741593583690e-18  2.0574225674372349e-20  1.6774296816536161e-18  4.3166692057919754e-20  -1.6047696236939063e-18  -1.2613282908609338e-18  4.6008715372783462e-19  -1.3099591809560320e-18  -2.4865706920661672e-18  -3.6797912530288568e-19  -3.4459539575034432e-19  -1.4493333707902329e-19  -1.4703343790924357e-19  -5.4388645631804976e-19  1.0400892957076588e-18  1.4301561308793595e-18  -3.2080792318652793e-19  -5.3671997259081721e-19  -2.7251778714766292e-19  -1.9877945662274760e-18  -3.9361479775114529e-18  4.6662107254983343e-19  -4.7679235774510964e-19  -2.3302413553538651e-19  -1.7395636065654868e-18  -3.4696124065945521e-18  -2.3327310413945213e-18  -6.6675925686973544e-19  4.4278381367513300e-19  5.3156637613916092e-20  9.4177805906616156e-19  1.1021099506131660e-18  -5.2967280141782308e-20  -4.7646576770000704e-19  -5.1328517949572068e-20  -7.1552748078759632e-20  -5.6688032973701833e-19  1.1379162637794253e-18  1.7247524477830325e-18  -1.6015547971038039e-18  -1.3727068507316373e-18  1.0497841881245212e-18  9.6017362310049870e-19  -9.9783569952751301e-19  -1.0663865164894911e-18  -6.4613919009747206e-19  -4.4443798618469304e-18  -3.4779144620710088e-18  -7.3733869901201437e-19  -5.0192514461968578e-19  -7.9940480501486173e-19  -2.8737953945452020e-18  -2.7672185478593745e-18  -3.1237611970424417e-19  -5.0971900148124056e-19  8.3628865533945964e-19  4.6032818618400540e-19  -2.8097048857349042e-19  -1.2461666205947519e-01  -1.2359255755662807e-01  -1.2076003930740123e-01  -1.1716078638488812e-01  -1.1376648377807796e-01  -1.1109950135184532e-01  -1.0954225784768513e-01  -1.0886839529030962e-01  -1.0944435526936974e-01  -1.1106066068740611e-01  -1.1354004100444265e-01  -1.1679295984391497e-01  -1.2031840100675500e-01  -1.2324536705765660e-01  -1.2418088600870750e-01  -1.2506450482558140e-01  -1.2495503068367088e-01  -1.2280935410033458e-01  -1.1976066535742301e-01  -1.1662073084892852e-01  -1.1402996487505462e-01  -1.1195817809270460e-01  -1.1050813441304175e-01  -1.0973500314604959e-01  -1.0947335227781557e-01  -1.0975178794763127e-01  -1.1067250161945462e-01  -1.1210646154613310e-01  -1.1443218001546210e-01  -1.1715081893513182e-01  -1.2032526081713008e-01  -1.2338041083779130e-01  -1.2559404718825684e-01  -1.2570220376029190e-01  -1.2475891590269891e-01  -1.2393873210338596e-01  -1.2121729062197714e-01  -1.1772035424205043e-01  -1.1441496505452337e-01  -1.1184258198858085e-01  -1.1025370299964553e-01  -1.0972473859069444e-01  -1.1023590444255885e-01  -1.1181177661185637e-01  -1.1449215983839563e-01  -1.1795880250643603e-01  -1.2154440695892427e-01  -1.2440348215163699e-01  -1.2533516513862003e-01  -1.2642370508763656e-01  -1.2635203376054671e-01  -1.2422967392709680e-01  -1.2118401725010997e-01  -1.1806723766120900e-01  -1.1535366769194727e-01  -1.1306190706874643e-01  -1.1166314002025192e-01  -1.1073584725880742e-01  -1.1039803777275696e-01  -1.1065748093763797e-01  -1.1145368063499621e-01  -1.1289890118483670e-01  -1.1492762911257051e-01  -1.1751400233540138e-01  -1.2060955488019685e-01  -1.2358893654166617e-01  -1.2562614608928291e-01  -1.2563177417159149e-01  -7.7366045160017424e-02  -7.2058609086093864e-02  -7.8072379929569988e-02  -7.2323687622273411e-02  -7.8064667651278175e-02  -7.5710631341587759e-02  -7.8093755454123517e-02  -7.4329851237646322e-02  -6.9316698172240537e-02  -7.0015730230395784e-02  -6.7831328633696369e-02  -6.9107571733032711e-02  -6.8403676580907222e-02  -6.8204354094091008e-02  -8.1934443895537459e-02  -6.3669509904100322e-02  -7.7164256648143623e-02  -7.8587163122758583e-02  -6.7507959001575607e-02  -8.3338578080187409e-02  -8.4652319228972622e-02  -8.4304554339786952e-02  -8.6864411925591745e-02  -8.6260014238141572e-02  -9.0558263713921741e-02  -8.9059714889599448e-02  -9.2284470725965878e-02  -9.1822044511549392e-02  -8.2323439959056152e-02  -6.1100347224322782e-02  -5.4950672848578755e-02  -3.8993182262996577e-02  -3.0756157488924272e-02  -1.5762195307941540e-02  -6.0354142032935073e-03  4.7613168261954825e-03  -2.9305527698250466e-02  1.6710705039709207e-02  2.3472124270677370e-02  2.7903083720864767e-03  1.8356860566233594e-02  -5.2068306726195590e-03  3.9522779768984750e-03  2.4873223269898336e-02  8.0420005552535069e-03  2.2296839103430100e-02  1.4808287325855228e-03  6.2373188635041280e-03  -1.4092768744551447e-02  -1.4835540735027280e-02  -5.5802800553639937e-04  1.9985328705187645e-02  4.5617776402660229e-03  2.1460688119989423e-02  3.8352346419339139e-03  1.8196891567046142e-02  -1.1367281297179814e-03  9.6449980163804717e-03  -1.2484064451612226e-02  -1.9343277534901289e-04  1.9717415753224912e-02  2.2477889060025782e-03  1.8599390312610282e-02  -1.7613468248862243e-02  -2.2039192066391492e-02  -3.0818975650084242e-02  -2.7612971776839388e-02  -2.1857824653852952e-02  -3.4063075281895207e-02  -1.3058038682629294e-02  7.6724328009526834e-03  -4.9869212439167934e-02  -3.6496785559853397e-02  -2.4468121128692993e-02  -2.9801474277593849e-02  -1.7046494853960779e-02  9.9053369915504709e-03  -2.0216399697313668e-02  3.9661741725287641e-03  2.7905334856212417e-02  1.4931721637090993e-02  -5.3922066446613869e-03  -6.3594528669140050e-04  2.3941040760936450e-02  2.6588709590435770e-03  -1.6495791421615520e-02  -1.7654241854317448e-02  -5.2030017193243176e-03  -3.5785794733512434e-02  -4.1595778541449677e-02  -5.4633054764883032e-02  -5.4980684492179882e-02  3.3908400101904913e-02  -4.2955454845846654e-02  -3.9982434651033891e-02  -4.8265077902255378e-02  -3.4635505739659914e-02  -5.8346439734670769e-02  -5.9496220289266960e-02  -4.8760528462906017e-02  -2.3083690588572084e-02  -4.5813070537769542e-02  -5.5891374037673150e-02  -3.8542232252500891e-02  -1.5738613683769501e-02  -3.4670077447062957e-02  -3.8136133755430644e-02  -2.1179237444641043e-02  -3.9893976807309127e-02  -5.3128813690465432e-02  -5.6369226638342207e-02  -4.7499290367650479e-02  -5.0407993866313124e-02  -4.0667931383159939e-02  -5.9966298833319907e-02  -2.1078261691551699e-02  3.7708242112310893e-02  -5.6915575328680801e-02  3.7736014659007971e-02  -4.1714793861362016e-03  -3.1083276553375637e-02  -8.8773199829806672e-03  -3.2761870218635879e-02  -5.0827859045263005e-02  -5.4356022021515439e-02  -4.0313002533970653e-02  -2.0210886518284937e-02  -3.7054836105056548e-02  -4.5151393852883887e-02  2.6535249231962578e-02  -6.7914856850031721e-02  -7.1230549273290616e-02  -2.4249737245461960e-02  -4.5754546299127313e-02  -4.0427635196353569e-02  -2.8300133524075056e-02  -3.9239554926572100e-02  -5.5694107691307344e-02  -4.0591435612167333e-02  -5.2153498408071763e-02  -5.8557830810289445e-02  -6.5918628837393939e-02  -7.5088028705660434e-02  -8.0927526944163733e-02  -5.0053297573710284e-02  -6.5026084603841919e-02  -6.8477250241708920e-02  -6.5945106461265113e-02  -7.8025530527899484e-02  -8.5397705311752808e-02  -7.1032477363214344e-02  -4.7130454434401635e-02  -2.5056299592925248e-02  -7.8488532201448552e-02  -7.4134385415751292e-02  -6.7789038462769263e-02  -8.2705943820299457e-02  -6.6202226995921667e-02  -6.6187438660596565e-02  -7.4183657999295299e-02  -8.5753986969314536e-02  -6.7697631058515659e-02  -6.8490216483998223e-02  -7.6501152777276607e-02  -5.7566057674636191e-02  -7.2520401891641925e-02  -5.3889701220313946e-02  -7.0547968169379846e-02  -8.0166880558962178e-02  -8.7391681057900988e-02  -7.7207217065221934e-02  -5.9326071328577062e-02  -3.8246672646116128e-02  -6.8687701315029964e-02  -7.4380373561320226e-02  -5.9964127586336305e-02  -9.0992641032646177e-02  -9.1814173535038651e-02  -9.2054209391213768e-02  -9.1817663215368578e-02  -7.1878136739123175e-02  2.8952262518696793e-02  4.0564772380247249e-02  -4.9400313454166914e-02  -7.5741438761380203e-02  -7.7526548374804757e-02  -6.8635746395737260e-02  -8.6765455183955204e-02  -6.8845075636521882e-02  -6.3854864389613450e-02  -4.3971515393783439e-02  -2.8327007971921305e-02  -6.7557156511391742e-02  -2.8805082038584770e-02  3.5460429719136925e-02  3.4790739235773950e-02  1.2024305832051113e-02  -4.8681081808227514e-02  -6.2626453020547701e-02  -4.6586764717183961e-02  -5.1246512412881390e-02  -4.6060459693763496e-02  -7.0914508648495619e-02  -7.0932190879151910e-02  3.2194398703226407e-02  -7.1223722008814688e-02  -4.9073083830355052e-02  -5.2603353374662765e-02  -1.8474876589154820e-02  -6.3538721296695147e-02  -2.3492109783601729e-02  1.1575682064013668e-02  -7.3511328501182291e-02  4.3183135082832072e-02  -9.8710099806080028e-03  -8.0113022412571039e-02  -2.5976118191427779e-02  -4.6969469874020418e-02  -5.1043800148362330e-02  2.9643081524112203e-02  -7.2182229443764748e-02  -5.7114518955487831e-02  -4.7963188462716917e-02  4.4864535060386637e-02  -5.3831434743005793e-02  -4.1235715460457276e-02  4.0768125126286366e-02  -1.7447136399715825e-02  -4.4889844210556869e-02  4.4643112753789668e-02  -2.3526242395254401e-02  -5.8236957237261015e-02  -6.1553877722575548e-02  -3.5755199483798190e-02  -1.5489438671808169e-02  -4.6926671121887288e-02  -7.4748044366256455e-02  -2.5792271510501646e-02  -9.7175781933233216e-02  -9.7741567244787234e-02  -9.7671493134942958e-02  -9.8370273779388381e-02  -5.6486318064527065e-02  -7.0801090529179711e-02  -5.8723832920993854e-02  -6.6953556014872656e-02  -4.9823849515835683e-02  -1.1268123607671047e-02  -6.6625181890412291e-02  -6.0569683631093267e-02  -3.1939728533511944e-02  -5.7570897791921326e-03  -1.5589836114250312e-02  -3.5370198033162176e-03  -6.1487854612885563e-02  -5.5171032035348433e-03  -4.4527070168808108e-02  5.0997589688322538e-05  4.3504330604833247e-02  -3.9874760472422437e-02  -1.7135822219623575e-02  -3.1733109937699906e-02  -4.7538038778922910e-02  -1.1854869869669158e-02  -5.5722599470294336e-03  3.6411198851510541e-02  -7.6552951004482658e-02  -1.3375436314751532e-01  -1.3388735815314806e-01  -1.3976000082364823e-01  -1.4828878305031895e-01  -1.4034563247036563e-01  -1.4957620534671184e-01  -1.3278335051593471e-01  -1.3854008500430320e-01  -1.3289228426764560e-01  -1.3912025427483357e-01  -1.4815018176151132e-01  -1.4749453117333713e-01  -7.1298048382960749e-02  -6.2400297984005926e-02  -7.5567594455933099e-02  -6.5648041932199128e-02  -1.3443236656384935e-01  -1.4566324334211073e-01  -1.4607719763017168e-01  -1.3506727766774623e-01  -1.5274023702759695e-01  -1.5843258470364527e-01  -1.3705571039979692e-01  -1.3598395268193195e-01  -1.4814661661614872e-01  -1.6504148619564324e-01  -1.7181286355706199e-01  -1.6970707079083241e-01  -1.7881344812771771e-01  -1.7815767580844066e-01  -4.3472441929391439e-02  -4.0516507326096358e-02  -4.2255892744056361e-02  -4.1762832217159408e-02  -8.0364871862119144e-02  -7.9724714304380676e-02  -8.2396050707301230e-02  -1.8199255236061843e-01  -1.8097841436000492e-01  -1.7494809973205558e-01  -1.6971048151259510e-01  -8.4505760174801756e-02  -8.5516356142069649e-02  -8.3953419175521876e-02  -7.8694436735670101e-02  -8.1946751319923128e-02  -7.8869535419634706e-02  -9.1911137300518850e-02  -4.9299735048798699e-02  -1.7500601479060335e-01  -1.7097831868104524e-01  -5.7040800234569290e-02  -4.8904948053251074e-02  -5.6122895010995176e-02  -1.5256162109279983e-01  -1.5679091146300508e-01  -1.6523776052169678e-01  -1.7125225522376031e-01  -1.7567042806740901e-01  -1.7926102967127155e-01  -1.7539234575060747e-01  -1.7977276700362946e-01  -1.7751619603912658e-01  -1.7920658297493081e-01  -1.5324845746904309e-01  -1.5809083336122190e-01  -1.6602498213183894e-01  -1.7197860954641445e-01  -1.6819181518760493e-01  -1.7644011565529086e-01  -1.7998085103567937e-01  -1.8058221115717207e-01  -1.7830292481791374e-01  -1.8001855468927400e-01  -1.4167256622925470e-01  -1.5219366321424341e-01  -1.5776560649937554e-01  -1.6444682366837912e-01  -1.7122171463617769e-01  -1.6902670719553281e-01  -1.7793759153781497e-01  -1.7731104954170324e-01  -1.8117763585195273e-01  -1.8029546435433624e-01  -1.3370490649390257e-01  -1.3329828810521205e-01  -1.3906311566697999e-01  -1.3982019110435120e-01  -1.7840792258833635e-01  -1.7686181454622613e-01  -1.7442406040231473e-01  -1.7820460844709196e-01  -1.7618810301948554e-01  -1.7416854355791536e-01  -7.9427071783374173e-02  -1.7507542285014996e-01  -1.7743630004584696e-01  -1.7876382843921651e-01  -1.7596043808592138e-01  -1.7732967696687163e-01  -1.8108123242474183e-01  -1.4236210997208462e-01  -1.6540605172153861e-01  -1.6496206382331183e-01  -6.4389542429064001e-02  -6.0702606818388925e-02  -6.4161465237250290e-02  -1.6668717019656110e-01  -1.6802989428973142e-01  -1.6766733839031103e-01  -1.6451210007024217e-01  -1.6789039529131819e-01  -1.7028955005967142e-01  -1.6843634313631556e-01  -1.7081280517034067e-01  -1.6164657077313552e-01  -1.6922743126985298e-01  -1.5539772693779386e-01  -1.6374094062841277e-01  -1.4839655417891978e-01  -1.5531248606405798e-01  -1.6091767486188097e-01  -1.6756445364564179e-01  -1.5388845262817760e-01  -1.6062872291718633e-01  -1.4626629914239150e-01  -1.5358604984270760e-01  -1.3907586128049781e-01  -1.4763528092527389e-01  -1.3303272972630836e-01  -1.4333080520019786e-01  -1.2927866357305681e-01  -1.4137260625357945e-01  -1.2784457410119518e-01  -1.4178506948917313e-01  -1.4073785148621401e-01  -1.4907451931887522e-01  -1.3444522255889904e-01  -1.4470369701855715e-01  -1.3057888920466523e-01  -1.4268669583957219e-01  -1.2892955959522165e-01  -1.4297935218786900e-01  -1.6641698730034399e-01  -1.6803405446827907e-01  -1.6757923085134285e-01  -1.6850063210881167e-01  -1.6701731011743046e-01  -1.6789053894164863e-01  -1.2965506523964412e-01  -1.4466989307083500e-01  -1.3308018214257666e-01  -1.4926804487252179e-01  -1.3811707637954476e-01  -1.3060209374905052e-01  -1.4569791888320222e-01  -1.3380022160672445e-01  -1.5027600461238713e-01  -1.3900675028621015e-01  -1.7992702079723547e-01  -1.7367866720628872e-01  -1.7236655433552187e-01  -1.5281225856903605e-01  -1.5793386083803318e-01  -1.5159739343485612e-01  -1.5665977397408554e-01  -1.4717801423264132e-01  -1.4292751088368238e-01  -1.4565071333517091e-01  -1.4278064573111998e-01  -1.5008759581003397e-01  -1.0753711132892103e-01  -1.4856443865499661e-01  -1.5342142727154681e-01  -1.4552227359057970e-01  -1.5032099727025044e-01  -1.0875367457023775e-01  -1.5574603430437570e-01  -1.4426069494931701e-01  -1.5959846648155732e-01  -1.4978180798538612e-01  -1.5822804515587457e-01  -1.5075703766520102e-01  -1.5155248373725666e-01  -1.4722892400061088e-01  -1.6173305458003706e-01  -1.4775016698846333e-01  -1.6279128842019430e-01  -1.2163126394638313e-01  -1.7160637514935623e-01  -5.1442288897041374e-02  -1.6377524264052265e-01  -1.7381863549639620e-01  -1.2278114310053724e-01  -1.4495925394026848e-01  -1.5645761564084529e-01  -1.2113155123431132e-01  -1.6069123196679846e-01  -1.6153171549511780e-01  -1.5945187200377878e-01  -1.6933027834514958e-01  -1.6489062614210642e-01  -1.7096809552556747e-01  -1.6662233046703862e-01  -1.6552925495461004e-01  -1.6132726136643513e-01  -1.7100315085227283e-01  -1.6137172296856828e-01  -1.5769633560550891e-01  -1.5693487528225453e-01  -1.5469145879633953e-01  -1.5419844628881879e-01  -1.5314471115473149e-01  -1.5260166267960001e-01  -1.5808720027411222e-01  -1.5790788973738804e-01  -1.4755614826425778e-01  -1.6261831586364855e-01  -1.5903072162727733e-01  -1.5561697196734625e-01  -1.2455945102274039e-01  -1.5398771891859095e-01  -1.4261056544601514e-01  -1.4423355377203312e-01  -1.4360486919751408e-01  -4.6958105195768825e-02  -5.4717491231882340e-02  -5.0782900654198944e-02  -1.5579762672087921e-01  -1.5047097870953763e-01  -1.7710831559537649e-01  -1.6696442336905287e-01  -1.7232905573244747e-01  -1.3288104139439066e-01  -1.3278087126718280e-01  -1.3622001679895018e-01  -1.5682426701710828e-01  -1.6445605834110763e-01  -1.6796335159299192e-01  -1.6380416887393587e-01  -1.5433642006697049e-01  -1.5779930116123558e-01  -1.5682979622109638e-01  -1.5467487212226913e-01  -1.5223465762465538e-01  -1.5337365745878892e-01  -1.4508483325094851e-01  -1.5130526310918641e-01  -1.5046070717689883e-01  -1.5230023753835459e-01  -1.4932187208993944e-01  -1.5479520887087359e-01  -1.4743228932606928e-01  -1.5699576863856987e-01  -1.5532667037995324e-01  -1.6055887287261500e-01  -1.5887501458486247e-01  -1.6598155954022628e-01  -1.5929791012365863e-01  -1.7137359933497642e-01  -1.5655157501227318e-01  -1.7010409062625792e-01  -1.5166257565299451e-01  -1.5724954911668401e-01  -1.4837847244791691e-01  -1.6676222688891831e-01  -1.6408666366039382e-01  -1.4628021625553539e-01  -1.4247951470724318e-01  -1.5038114555811258e-01  -1.4707978359260507e-01  -1.6501148662680862e-01  -1.4902702225875905e-01  -1.6378534475810977e-01  -1.4236897192241485e-01  -1.4445691057279492e-01  -1.5276145609552330e-01  -1.6686222009392040e-01  -1.4490278779862487e-01  -1.6294295229522571e-01  -1.4719541232052064e-01  -1.1213370979795753e-01  -1.1746352003845860e-01  -1.4323854237732725e-01  -1.5484875495530040e-01  -1