<?xml version="1.0"?>
<VTKFile type="UnstructuredGrid"  version="0.1"  >
<UnstructuredGrid>
<Piece  NumberOfPoints="1297" NumberOfCells="2496">
<Points>
<DataArray  type="Float64"  NumberOfComponents="3"  format="ascii">0 0 0  0 1 0  1 1 0  1 0 0  1.1 -0.1 0  -0.1 -0.1 0  1.1 1.1 0  -0.1 1.1 0  0.2511354732829663 0.6993068931432163 0  0.2511288550452331 0.300644386974339 0  0.7488878803834361 0.3006561628544578 0  0.7488874756491307 0.6993070558936137 0  0.5000086349865369 0.4999767458855263 0  0 0.9499999999997918 0  0 0.8999999999995836 0  0 0.8499999999996529 0  0 0.7999999999999998 0  0 0.7500000000003466 0  0 0.7000000000006934 0  0 0.6500000000010401 0  0 0.6000000000013869 0  0 0.5500000000017335 0  0 0.5000000000020587 0  0 0.4500000000018723 0  0 0.4000000000016644 0  0 0.3500000000014564 0  0 0.3000000000012483 0  0 0.2500000000010403 0  0 0.2000000000008322 0  0 0.1500000000006241 0  0 0.100000000000416 0  0 0.05000000000020799 0  0.04999999999989965 0 0  0.09999999999981467 0 0  0.1499999999997036 0 0  0.1999999999995579 0 0  0.2499999999994121 0 0  0.2999999999992664 0 0  0.3499999999991206 0 0  0.3999999999989749 0 0  0.4499999999988292 0 0  0.4999999999986943 0 0  0.5499999999988151 0 0  0.5999999999989468 0 0  0.6499999999990784 0 0  0.69999999999921 0 0  0.7499999999993417 0 0  0.7999999999994734 0 0  0.8499999999996051 0 0  0.8999999999997368 0 0  0.9499999999998684 0 0  1 0.04999999999989965 0  1 0.09999999999981467 0  1 0.1499999999997036 0  1 0.1999999999995579 0  1 0.2499999999994121 0  1 0.2999999999992664 0  1 0.3499999999991206 0  1 0.3999999999989749 0  1 0.4499999999988292 0  1 0.4999999999986943 0  1 0.5499999999988151 0  1 0.5999999999989468 0  1 0.6499999999990784 0  1 0.69999999999921 0  1 0.7499999999993417 0  1 0.7999999999994734 0  1 0.8499999999996051 0  1 0.8999999999997368 0  1 0.9499999999998684 0  0.9499999999997918 1 0  0.8999999999995836 1 0  0.8499999999996529 1 0  0.7999999999999998 1 0  0.7500000000003466 1 0  0.7000000000006934 1 0  0.6500000000010401 1 0  0.6000000000013869 1 0  0.5500000000017335 1 0  0.5000000000020587 1 0  0.4500000000018723 1 0  0.4000000000016644 1 0  0.3500000000014564 1 0  0.3000000000012483 1 0  0.2500000000010403 1 0  0.2000000000008322 1 0  0.1500000000006241 1 0  0.100000000000416 1 0  0.05000000000020799 1 0  -0.1 1.05000000000004 0  -0.1 1.000000000000079 0  -0.1 0.9500000000001624 0  -0.1 0.9000000000003032 0  -0.1 0.850000000000444 0  -0.1 0.8000000000005848 0  -0.1 0.7500000000007256 0  -0.1 0.7000000000008665 0  -0.1 0.6500000000010508 0  -0.1 0.6000000000012352 0  -0.1 0.5500000000014196 0  -0.1 0.500000000001539 0  -0.1 0.4500000000014195 0  -0.1 0.4000000000013 0  -0.1 0.3500000000011588 0  -0.1 0.3000000000010178 0  -0.1 0.2500000000008986 0  -0.1 0.2000000000007579 0  -0.1 0.1500000000006174 0  -0.1 0.1000000000005272 0  -0.1 0.05000000000040083 0  -0.1 2.671196597248127e-13 0  -0.1 -0.0499999999998666 0  -0.0500000000000906 -0.1 0  -1.730560139634463e-13 -0.1 0  0.04999999999975802 -0.1 0  0.09999999999961506 -0.1 0  0.1499999999994613 -0.1 0  0.199999999999302 -0.1 0  0.2499999999991446 -0.1 0  0.2999999999990088 -0.1 0  0.3499999999988296 -0.1 0  0.3999999999986936 -0.1 0  0.4499999999985143 -0.1 0  0.4999999999984002 -0.1 0  0.5499999999985247 -0.1 0  0.5999999999986493 -0.1 0  0.6499999999987955 -0.1 0  0.6999999999989417 -0.1 0  0.7499999999990659 -0.1 0  0.7999999999992116 -0.1 0  0.8499999999993573 -0.1 0  0.8999999999994526 -0.1 0  0.949999999999584 -0.1 0  0.9999999999997226 -0.1 0  1.049999999999861 -0.1 0  1.1 -0.0500000000000906 0  1.1 -1.730560139634463e-13 0  1.1 0.04999999999975802 0  1.1 0.09999999999961506 0  1.1 0.1499999999994613 0  1.1 0.199999999999302 0  1.1 0.2499999999991446 0  1.1 0.2999999999990088 0  1.1 0.3499999999988296 0  1.1 0.3999999999986936 0  1.1 0.4499999999985143 0  1.1 0.4999999999984002 0  1.1 0.5499999999985247 0  1.1 0.5999999999986493 0  1.1 0.6499999999987955 0  1.1 0.6999999999989417 0  1.1 0.7499999999990659 0  1.1 0.7999999999992116 0  1.1 0.8499999999993573 0  1.1 0.8999999999994526 0  1.1 0.949999999999584 0  1.1 0.9999999999997226 0  1.1 1.049999999999861 0  1.05000000000004 1.1 0  1.000000000000079 1.1 0  0.9500000000001624 1.1 0  0.9000000000003032 1.1 0  0.850000000000444 1.1 0  0.8000000000005848 1.1 0  0.7500000000007256 1.1 0  0.7000000000008665 1.1 0  0.6500000000010508 1.1 0  0.6000000000012352 1.1 0  0.5500000000014196 1.1 0  0.500000000001539 1.1 0  0.4500000000014195 1.1 0  0.4000000000013 1.1 0  0.3500000000011588 1.1 0  0.3000000000010178 1.1 0  0.2500000000008986 1.1 0  0.2000000000007579 1.1 0  0.1500000000006174 1.1 0  0.1000000000005272 1.1 0  0.05000000000040083 1.1 0  2.671196597248127e-13 1.1 0  -0.0499999999998666 1.1 0  0.2509374256436531 0.6745545671592831 0  0.250898247081086 0.6496680291432498 0  0.2508816998321481 0.6247470401792308 0  0.2508720635122156 0.599805759792014 0  0.2508682610557652 0.5748546171578036 0  0.2508650084501544 0.5498981723603226 0  0.2508643518893181 0.5249380111804318 0  0.2508630802746645 0.4999769186616329 0  0.2508630359949225 0.4750153358384666 0  0.250863674671238 0.4500546718674309 0  0.2508659288256863 0.4250975126907373 0  0.2508689403299008 0.4001457083811991 0  0.2508765142399098 0.3752036997776617 0  0.250893103059912 0.3502808757635649 0  0.2509306032934546 0.3253949026200378 0  0.2758754126365964 0.3003619520669554 0  0.3007391130833938 0.3002346831418227 0  0.3256388118805385 0.3001338297569476 0  0.3505519060846794 0.3000474449422686 0  0.3754669903280882 0.299976441598727 0  0.4003797592146761 0.2999136918009379 0  0.4252889998268201 0.2998608172975279 0  0.4501967386263128 0.299821493929071 0  0.4751031617213753 0.2997976855659832 0  0.5000089390129474 0.2997902047101724 0  0.5249145080186938 0.2997995085896181 0  0.549820862341903 0.2998245906218842 0  0.574729138540934 0.2998636636242922 0  0.5996385476161928 0.2999191504330086 0  0.6245526975181803 0.2999841220917167 0  0.6494685259564286 0.3000575825494874 0  0.6743803595247782 0.3001442442334117 0  0.6992783078623408 0.3002443246015084 0  0.7241394830823232 0.3003723136076683 0  0.7490808207195361 0.325412614276156 0  0.7491202651409228 0.3502933768799332 0  0.7491368282579235 0.3752141074337816 0  0.7491456077400707 0.4001545664490895 0  0.7491497736771574 0.42510522229196 0  0.7491526209535044 0.4500612316589095 0  0.7491544616390446 0.4750204659316709 0  0.7491556779912291 0.4999813931767057 0  0.7491566386720649 0.5249425532808396 0  0.7491561031214904 0.5499018419466369 0  0.7491537496809324 0.5748580588039076 0  0.7491501461047971 0.5998086337684272 0  0.7491390345537916 0.6247486788083478 0  0.7491212932044877 0.6496696810628712 0  0.7490815136936718 0.6745507969116074 0  0.7241396164658397 0.6995875401114092 0  0.6992788194973343 0.6997131918995738 0  0.6743813937816131 0.6998129905697359 0  0.6494691298969762 0.6998980331472775 0  0.6245528762536959 0.6999717328541638 0  0.599637917147238 0.700035677665345 0  0.5747285763386284 0.7000909190766832 0  0.5498204485304552 0.7001299647854631 0  0.5249143714049295 0.7001544272511723 0  0.5000095276401545 0.7001629456117409 0  0.4751044019945579 0.7001547616321901 0  0.4501982986420381 0.7001304163518484 0  0.4252910381713909 0.7000906060709563 0  0.4003811839502368 0.7000373245096919 0  0.3754674790586107 0.6999744650443913 0  0.3505527870937267 0.6999027772668625 0  0.3256408335773958 0.6998168090477955 0  0.3007422497574754 0.6997165627510867 0  0.2758797142571835 0.6995887743085347 0  0.3630268636815861 0.3216675417165966 0  0.2724581683030673 0.4375688704658464 0  0.3630284979134034 0.678283145560951 0  0.2724599728216835 0.5623834288262024 0  0.7290608477928679 0.5867976048121781 0  0.6120828441619154 0.6793931438076818 0  0.6359324940818902 0.3212788449961076 0  0.7290737641071047 0.4367856808922436 0  0.7281328651719063 0.5118205283165436 0  0.5615737161568479 0.3198469143870352 0  0.4387231586026523 0.3216608093185844 0  0.4372709410566921 0.6787122878614049 0  0.5373639643333227 0.6792342187179758 0  0.2724545777518103 0.4874941225139979 0  0.2707083293550292 0.3875523485359817 0  0.4877523197003688 0.323436998986671 0  0.2766292550998689 0.6102994591988204 0  0.7237699347941972 0.3856325292144122 0  0.4875580064687126 0.6792202530587083 0  0.6620306545285763 0.6785696922920204 0  0.3126910510582497 0.3237904533389854 0  0.68761949731988 0.3251165382805094 0  0.3134237538584487 0.6782458709359032 0  0.7268862017392251 0.6387162611482399 0  0.2719759445900696 0.3381172618227415 0  0.274748841661521 0.6600999569169107 0  0.711584757756775 0.6785019211326351 0  0.728920197103213 0.3374063955344977 0  0.3381558740706667 0.6782315026392882 0  0.3510530395441454 0.6568710129186293 0  0.3755698289478395 0.6567016543883354 0  0.3630816941351502 0.6350002322616807 0  0.3884823392930635 0.6347372938147554 0  0.3750200632999158 0.6103523583210615 0  0.4051326274058089 0.6101468303882358 0  0.3887384487000577 0.5807783353598845 0  0.3455662982798741 0.6099978405978518 0  0.4251643911107197 0.5801349952130674 0  0.4045178817529747 0.5463009473519923 0  0.362479248923638 0.5524435328256276 0  0.3808106488149499 0.5138817567491086 0  0.3417594299190752 0.5162385138050886 0  0.3552346605332173 0.4819223705272828 0  0.3965267214441206 0.4771474902011492 0  0.3738501409145333 0.4449882356703879 0  0.4118985304168463 0.4407150370446157 0  0.3897262817214774 0.410428085336098 0  0.4249787046096942 0.4005135684856564 0  0.3533822916706095 0.4102488484739309 0  0.3984869208129858 0.37960390037863 0  0.4344999709055188 0.6112854188109741 0  0.4625131334295907 0.5869300790723413 0  0.4822894128345638 0.6110968212854238 0  0.5023405646279328 0.5882035133059441 0  0.5214610427011854 0.6112962826029812 0  0.5412148258178463 0.5888835506158347 0  0.56011657547745 0.6125692157215298 0  0.5795016379347845 0.5905793801291415 0  0.5992328763338348 0.6171881985995288 0  0.6170001774493072 0.5863526537461431 0  0.599238647704
[...]
<PointData  Scalars="u"> 
<DataArray  type="Float64"  Name="u"  format="ascii">-2.6214895790338804e-19  -3.0638068543281985e-19  1.6859444316975484e-18  -2.6179265012948119e-18  1.5624495064773608e-19  1.3083852096872665e-20  -9.3387315947247781e-20  1.5663556038305656e-20  -1.4202423013698473e-01  -1.4204863375358112e-01  -1.4200909022296279e-01  -1.4203489787016643e-01  4.9180690915980305e-02  -1.5868977688866639e-18  -2.8066921782523705e-18  5.5659705173939901e-18  2.1237465407987714e-18  -3.4517504294055181e-18  -1.3167029234592883e-17  -2.6209755349841240e-18  6.4174812668207349e-18  1.5416697952539980e-17  -1.7535349504816373e-18  -6.7505167520665285e-18  -1.6061191609571313e-19  -1.9315747145223307e-18  -6.0372098931452161e-18  -2.8703866892097489e-18  8.7150844347734888e-18  -8.6233498104843131e-18  -3.3175437156361163e-18  2.9555650017318259e-18  -2.9842027968197942e-18  -2.8391265074843298e-19  -1.2849433317020513e-18  -2.1552583271005508e-18  -5.9573492565771995e-18  -1.4560284787933920e-18  5.8499209909715321e-18  -1.4218075722429457e-18  -2.6858012328682890e-18  -8.6742486534176071e-18  0.0000000000000000e+00  7.0217146634740261e-18  -3.3699449882325061e-18  -1.6125873661024271e-18  1.3423796590386751e-18  -1.0672934409111616e-17  -8.5429409682869236e-18  5.7782476803723013e-19  -1.0346527496064006e-19  9.8680116369110348e-18  6.2258885054840250e-18  -8.0197527528221151e-18  3.0940240626807626e-18  -2.4036905121926848e-18  -1.8313893351316398e-18  8.9214861150270693e-18  5.9242455746950110e-18  -2.9720777764833678e-18  6.1597661811188128e-18  -3.2226864615186407e-18  -1.1402254765013713e-18  -8.2801197487837276e-19  -1.6430018753635743e-18  1.2682197483959880e-18  6.9746200497405791e-18  -1.1573713775404539e-17  2.5741136192436222e-19  -8.3597408759817792e-19  -2.3221277739081289e-18  1.9500155358115149e-19  1.7622774796005613e-18  2.9224541716920148e-18  2.6854090771710262e-18  2.1671599145772834e-18  -1.2219312974277056e-18  -1.9376224517889105e-17  2.2096950532715783e-17  -1.0629187472915183e-17  -8.3785685556587377e-18  1.2445504983328808e-18  4.2860059051743450e-18  -5.7817215212941799e-19  -8.4706244496093950e-19  1.5163423807525722e-18  2.7058090349531603e-18  -9.1602998371046601e-19  1.4627335811070049e-19  -2.3566960686163120e-21  -1.2737769520735764e-21  -4.2126199015370727e-19  1.3135424920971200e-19  5.0781707425207831e-19  4.5982071476364077e-19  -6.4185256402251356e-19  -1.5627482264175572e-18  -6.7459073806236884e-19  1.4440332565377898e-18  1.8395831452567102e-18  -1.4354131183057858e-19  -9.2318378321144823e-19  -1.6478469053241603e-19  -2.0665250781222706e-19  -1.0473326209086038e-18  -1.8056689341215113e-19  4.9754450558020049e-19  -5.9520072344156140e-19  -6.6978516602194924e-19  3.3377513195461846e-19  7.7170923855025636e-20  -6.5204987424286864e-20  5.0463314266867977e-20  -1.3367833328354456e-19  -3.0882632880676396e-19  -1.3760393876376446e-19  -1.4402550407674556e-19  -2.9666301365480858e-19  -4.6976609559648113e-19  -7.8021108326309230e-19  2.3146524141241030e-19  1.9228508291492788e-19  -6.5520181060174342e-19  -1.0859392339331891e-18  1.8108513375473017e-20  6.0694763247466977e-19  -3.3006206749670994e-19  -1.8224434947791788e-19  -2.7128696283136877e-20  -1.4174217369353915e-18  -1.4848006384050976e-18  1.9061844283954086e-19  -3.4900367661565433e-20  -2.6668440457846195e-19  -4.5434848908848365e-20  -1.9727602665406062e-19  -6.2997418375642748e-20  1.2076775083012435e-18  9.0012526547022076e-19  -7.0126319050161867e-19  -1.4962184463055231e-20  -1.8685002514862158e-19  -4.2748270241451094e-20  1.0674638224847295e-18  7.0597429326520576e-19  6.9750940559179351e-20  3.4873678340001139e-19  -9.8462573267716176e-20  -2.8359766787939432e-19  -1.5049337203356601e-19  -6.5984430629426950e-20  4.5750578745718505e-19  3.4988222374531929e-19  -9.2661378117578834e-19  -5.5146031310494349e-19  1.2557876297823915e-19  1.1336312788725836e-19  6.1383022941062185e-20  8.0041604886464783e-20  1.0220323195957511e-19  -1.8405276153088352e-19  -5.4010031190366000e-20  3.2088276760703837e-19  1.6722793093183729e-19  3.6008659604522755e-19  5.5680846853202600e-19  -1.0110254081025578e-18  -1.1275250823153491e-18  1.2466214488179041e-18  -3.4173376216674226e-19  -1.5285105372760764e-18  1.2823281721948077e-19  4.4402925765224726e-19  -1.2876319006950792e-19  -2.7171897298819768e-19  6.4547736343968132e-19  3.4480778637845041e-19  -5.2491515742802266e-20  -3.2169452636539451e-20  5.6583254233374844e-20  -3.5550348902248757e-20  -1.3272672005767411e-01  -1.2307865966043829e-01  -1.1409690706044398e-01  -1.0626025840753318e-01  -1.0044639715394378e-01  -9.6065730781087932e-02  -9.3465859141240837e-02  -9.2531021377427081e-02  -9.3474639452948760e-02  -9.6137446341221455e-02  -1.0039756318668544e-01  -1.0620275836745767e-01  -1.1404375104719197e-01  -1.2308496307499885e-01  -1.3269653980846077e-01  -1.3739113281842741e-01  -1.3057978020485558e-01  -1.2328878327411585e-01  -1.1648138199318037e-01  -1.1089448184077827e-01  -1.0621647517932271e-01  -1.0246440766912254e-01  -9.9729026879518817e-02  -9.8179677313338182e-02  -9.7621453180894963e-02  -9.8159232395817447e-02  -9.9817848344922910e-02  -1.0226522397565553e-01  -1.0624478669068221e-01  -1.1090216433730507e-01  -1.1642408195699872e-01  -1.2320397141723534e-01  -1.3055910848580005e-01  -1.3735224396541912e-01  -1.3263949364169875e-01  -1.2302860334781576e-01  -1.1403960704129677e-01  -1.0619646843833189e-01  -1.0039234675789685e-01  -9.6036491530967216e-02  -9.3430090164926344e-02  -9.2588751968845334e-02  -9.3514427260067284e-02  -9.6088244941703094e-02  -1.0047188129576981e-01  -1.0625984828441408e-01  -1.1406993825035489e-01  -1.2306130685789050e-01  -1.3266457768233628e-01  -1.3739904314942461e-01  -1.3056484094698892e-01  -1.2324026657837669e-01  -1.1640502646708736e-01  -1.1091291899006867e-01  -1.0623671500311656e-01  -1.0225753231110488e-01  -9.9793438570007234e-02  -9.8163079331679337e-02  -9.7607198449249852e-02  -9.8168319007371690e-02  -9.9763778983738172e-02  -1.0254001325889353e-01  -1.0620912575908174e-01  -1.1084540203402388e-01  -1.1646779319190737e-01  -1.2329020773450469e-01  -1.3056845728032113e-01  -1.3738810958150643e-01  -7.4333812501298197e-02  -6.1833167778176011e-02  -7.4314153203232924e-02  -6.1904745476269646e-02  -6.9146656748285573e-02  -6.8611694741887858e-02  -7.4333961048706668e-02  -6.3114917931367587e-02  -5.5667236992382615e-02  -5.9667816934007530e-02  -5.7957544877634229e-02  -5.8529833367089730e-02  -5.6282167807588532e-02  -5.5273428165486367e-02  -7.8395449089998862e-02  -5.2309160145787931e-02  -7.3681921027807962e-02  -7.5633123773443237e-02  -5.4922203053790933e-02  -8.2957199040372784e-02  -9.1899502967360852e-02  -9.1101600918817846e-02  -9.3041135492095445e-02  -8.9445283448346541e-02  -1.0200842112450437e-01  -9.9813375666912105e-02  -1.0387405691423647e-01  -1.0270104543381273e-01  -8.2591555527352867e-02  -6.0591362505831227e-02  -5.2289931853993894e-02  -3.8703041563051273e-02  -2.9633913857585337e-02  -1.5349690580309950e-02  -4.4852417634226429e-03  6.5124268450996144e-03  -2.8013820207042399e-02  1.8695417758162965e-02  2.5435534189117686e-02  5.6863286593100259e-03  2.1498473851876140e-02  -3.1534409653516865e-05  8.2527309206183973e-03  2.7276941861379717e-02  1.0270751669073765e-02  2.3788918232204120e-02  2.7495303095459137e-03  8.3497568710777462e-03  -1.2975085676139090e-02  -1.4423344935571422e-02  1.9756610123552866e-03  2.2415209686637523e-02  7.9647543559936418e-03  2.4036179553843767e-02  7.5271157753064111e-03  2.0819780961704538e-02  1.8107325229513684e-03  1.2303807412342585e-02  -1.1097943890003303e-02  1.7788154419548508e-03  2.2062313139045314e-02  5.5089926536735015e-03  2.2050945665012402e-02  -1.5085663053835054e-02  -1.7037818115099468e-02  -2.7155266472242798e-02  -2.2310309876909303e-02  -1.6549187865620256e-02  -2.6073088056737345e-02  -1.1338432066480953e-02  1.0380813078312639e-02  -4.5148574012667517e-02  -3.2625948287109741e-02  -1.8933969011757004e-02  -2.4043981196373042e-02  -1.3877734144853757e-02  1.2797499778415596e-02  -1.6379789208596032e-02  6.7643271948767368e-03  2.9584100459260583e-02  1.7270800173452925e-02  -3.4635470818390498e-03  1.2634078629335994e-03  2.5773029955356016e-02  4.5386127601388321e-03  -1.5960163351467660e-02  -1.5563448771758987e-02  -2.0314532998304872e-03  -3.4847627006060228e-02  -3.8888445089286294e-02  -5.6538259034780707e-02  -5.6770238584242322e-02  3.6121124262978317e-02  -3.8521264024903343e-02  -3.8265537311301237e-02  -4.0751806136229231e-02  -2.6605310824846448e-02  -5.6889267354892560e-02  -6.2658539889941883e-02  -4.8922213499264441e-02  -1.9070274701298628e-02  -3.7369052335218048e-02  -4.5718243053603544e-02  -3.2193750601285397e-02  -1.1694737278148367e-02  -3.1543480993943399e-02  -3.7477976728039410e-02  -1.4825237844048727e-02  -3.2533286945156226e-02  -5.1524412191553778e-02  -5.9940978825617934e-02  -4.9023806858653679e-02  -4.1866626967867804e-02  -3.5528233670807652e-02  -4.8592173857544815e-02  -1.8076988942164803e-02  3.9004684884128171e-02  -5.1456704095181223e-02  3.9180184420773555e-02  1.3340900390796430e-03  -2.2481776477696579e-02  -2.8328512680485438e-03  -2.4374872230849415e-02  -3.9662884189217845e-02  -4.3594693510834191e-02  -3.3163998493815003e-02  -2.0488681179679575e-02  -3.5905477992285308e-02  -3.5629207177983374e-02  2.9238539809600842e-02  -7.3531648005665237e-02  -7.5251830810635106e-02  -2.3378180808278616e-02  -4.4303532437831160e-02  -4.0015025713322688e-02  -2.7412126414884681e-02  -3.4872920498061122e-02  -5.3007293597399585e-02  -3.7935625905739921e-02  -5.4131572588665265e-02  -5.3755359908567869e-02  -7.0710191730787395e-02  -8.3826631169437116e-02  -8.1899945320245041e-02  -3.9529834675038400e-02  -5.3799804039057174e-02  -5.6518820596875852e-02  -7.0275544416768657e-02  -8.6672763567351513e-02  -8.9359143339800967e-02  -6.2289799982395963e-02  -4.0660718570818710e-02  -2.3004545537621237e-02  -7.4804590895171455e-02  -6.7656024257839203e-02  -5.9635742562090650e-02  -8.2668202132066576e-02  -5.8466179846635956e-02  -5.5186985666344189e-02  -6.8300690060036584e-02  -8.8870971591151635e-02  -6.9842589300522298e-02  -5.5709952783188528e-02  -6.8077017503720028e-02  -5.0294897816177131e-02  -6.3199013082330405e-02  -4.8233114842584489e-02  -5.9477796510182812e-02  -7.5669733068342931e-02  -9.3082992215194241e-02  -8.5120661593498154e-02  -5.4832920425103057e-02  -3.0825015721304767e-02  -7.2096393501241016e-02  -6.8093552255419368e-02  -5.9908926387698916e-02  -1.0379733422441426e-01  -1.0403697872849428e-01  -1.0236726952300206e-01  -1.0408168338364093e-01  -6.0915292709621968e-02  3.0209928171891571e-02  4.1881303769703698e-02  -3.8827975226823040e-02  -6.7512824751209163e-02  -6.9633491059192407e-02  -7.0589602176739943e-02  -9.0364320715330779e-02  -5.7395994167137913e-02  -6.2559027763188904e-02  -3.5254729894970985e-02  -2.4207761163917794e-02  -5.5627791855815512e-02  -2.1032685442736006e-02  3.7309483238214612e-02  3.6140754574194238e-02  1.5123807048044367e-02  -4.9593640025008712e-02  -6.2047984028531199e-02  -3.7577503386115846e-02  -4.7214027740973531e-02  -3.8260279503810543e-02  -5.7486275847251293e-02  -5.7057064137465835e-02  3.3842602129253746e-02  -7.4043780229837652e-02  -4.0450274055156353e-02  -4.8107013264627796e-02  -1.7145308902851552e-02  -5.8062010069209281e-02  -1.9957135346586601e-02  1.5658237765584428e-02  -6.0288692061575520e-02  4.4287310786314843e-02  -8.5388493531247910e-03  -8.9209410664120595e-02  -2.2430146159244116e-02  -3.9283437116725814e-02  -4.3574805375710048e-02  3.1122653709531659e-02  -6.0010367905552378e-02  -5.4881803683273139e-02  -3.8289679016292648e-02  4.6338295130864363e-02  -4.6249106653574353e-02  -4.1300042174629965e-02  4.1989099219490775e-02  -1.1822369171437103e-02  -3.6840956334034607e-02  4.5941770227810909e-02  -1.8805457270607433e-02  -5.0894447856177201e-02  -5.7665537375063559e-02  -3.3716664316637238e-02  -1.1817744812413570e-02  -4.0484326241718903e-02  -6.1316109372789342e-02  -2.1769355649734520e-02  -1.1315704038327244e-01  -1.1313068264956198e-01  -1.1318232537554786e-01  -1.1315659976824727e-01  -5.5016725541350113e-02  -7.4426151418498565e-02  -4.8899032770969707e-02  -6.3179091490810663e-02  -4.2908065379584630e-02  -9.2317184943859522e-03  -7.1998229830672431e-02  -6.0092936814267639e-02  -3.1577464085962167e-02  -2.9202544643440621e-03  -1.2949139750875971e-02  -3.7634185318970257e-04  -5.3936305716720284e-02  -2.7924507821068772e-03  -3.9835583603801183e-02  4.5292019392084177e-03  4.4645898565301344e-02  -3.4507797915422987e-02  -1.5917177860342715e-02  -2.9730918098616266e-02  -3.8609008442996327e-02  -6.1154759678298124e-03  -3.4241689829894294e-03  3.8333223815021411e-02  -8.2925324795290550e-02  -1.2537355084524968e-01  -1.2580748551269577e-01  -1.3447134535155567e-01  -1.4919664153253059e-01  -1.3470564639426608e-01  -1.4975723646138389e-01  -1.2569261493327119e-01  -1.3408363168804893e-01  -1.2567531311846744e-01  -1.3437145306495199e-01  -1.4913907775506768e-01  -1.4926430199388402e-01  -6.1637098748968069e-02  -5.4604219332034874e-02  -6.6626820209993234e-02  -5.7392677729165613e-02  -1.1824397899221238e-01  -1.3817616393823842e-01  -1.3811307916645157e-01  -1.1786783119278628e-01  -1.5373268515340147e-01  -1.6063728022250628e-01  -1.2109358371068159e-01  -1.2088973041784332e-01  -1.4571757306209629e-01  -1.5869596621362897e-01  -1.6418679608172207e-01  -1.6637015334032712e-01  -1.6816645963186158e-01  -1.7055093905376251e-01  -6.9344751846786762e-02  -6.6605130634221812e-02  -6.9037472589633733e-02  -6.6789714256531379e-02  -5.9885944311518405e-02  -5.8151574860839515e-02  -6.1749581734608094e-02  -1.6944419330128996e-01  -1.7245595478799139e-01  -1.6094147346043394e-01  -1.5591884606903439e-01  -6.4003450558085304e-02  -6.1534824330139098e-02  -5.9165441370662500e-02  -5.7987871679030800e-02  -6.3273559793896247e-02  -5.9196098755241171e-02  -6.8577433702646989e-02  -5.9324470333614619e-02  -1.5498487609837422e-01  -1.5112549658342458e-01  -6.7255333415222066e-02  -6.0023960859539920e-02  -6.7321585433625208e-02  -1.5927836289388200e-01  -1.6215135746914339e-01  -1.6597817297847825e-01  -1.6768435844040078e-01  -1.7086984239105038e-01  -1.7009114684874349e-01  -1.6684224250222307e-01  -1.7144335661408844e-01  -1.7272543441999863e-01  -1.6664127687859578e-01  -1.5929125675803715e-01  -1.6237673282499618e-01  -1.6604532255882729e-01  -1.6766483088476153e-01  -1.6364638244533389e-01  -1.7089709778588658e-01  -1.6996044618890849e-01  -1.7146991465545755e-01  -1.7279039093534382e-01  -1.6684453814930258e-01  -1.3097213172533498e-01  -1.5361907275606079e-01  -1.6060896125530333e-01  -1.5865101354244140e-01  -1.6421212007643102e-01  -1.6635501966099481e-01  -1.6818922515247461e-01  -1.7055434449023371e-01  -1.6962632253151311e-01  -1.7191828230721293e-01  -1.1612295325428038e-01  -1.1655116408791777e-01  -1.2559184259861988e-01  -1.2565092057671820e-01  -1.6438423918472495e-01  -1.6931359983496805e-01  -1.7107412589582283e-01  -1.6638613514437753e-01  -1.6947764343734198e-01  -1.7202015114170532e-01  -6.1334276761172743e-02  -1.6721937773166243e-01  -1.7295615051173915e-01  -1.6607786606377076e-01  -1.6718852653527905e-01  -1.7233998863310221e-01  -1.6521472554450867e-01  -1.3026974930659116e-01  -1.6040391283031802e-01  -1.6090718356579714e-01  -5.2611798328237078e-02  -4.8752745369714516e-02  -5.2413690222334781e-02  -1.5687897891165825e-01  -1.5843250865695979e-01  -1.4291419925794768e-01  -1.4027166811112846e-01  -1.6467931962115051e-01  -1.7056730612375293e-01  -1.6434588852604728e-01  -1.7023227134860541e-01  -1.6210922700040878e-01  -1.7034231149696230e-01  -1.6186863341700894e-01  -1.6933039483067869e-01  -1.6079895289386964e-01  -1.6641661485901599e-01  -1.6256198165981883e-01  -1.7044409196574681e-01  -1.6178304338374772e-01  -1.6851270298352189e-01  -1.6034389013562034e-01  -1.6626913964551152e-01  -1.5880208335323229e-01  -1.6428750679275200e-01  -1.5716236977081244e-01  -1.6287293200499955e-01  -1.5610949244842481e-01  -1.6229056564643413e-01  -1.5547514736963719e-01  -1.6247546960167877e-01  -1.5892298197713309e-01  -1.6434564119170092e-01  -1.5711895394044276e-01  -1.6290346156343427e-01  -1.5600101846014774e-01  -1.6234069853055635e-01  -1.5524628055753553e-01  -1.6248423605965950e-01  -1.5552289086556462e-01  -1.5328893824230799e-01  -1.6687759404816541e-01  -1.6696209503864765e-01  -1.5515547452798883e-01  -1.5230048613720185e-01  -1.5572229187208000e-01  -1.6343230205316706e-01  -1.5583180139223488e-01  -1.6470886317774502e-01  -1.5592682050849321e-01  -1.5542303959605827e-01  -1.6331555540876724e-01  -1.5536802623428553e-01  -1.6457085353384396e-01  -1.5580486508394500e-01  -1.6459355420982172e-01  -1.5654057475513769e-01  -1.5200263767429234e-01  -1.6252422935322849e-01  -1.6519236228901776e-01  -1.6237327529870085e-01  -1.6498169776544658e-01  -1.5874647045650642e-01  -1.4206162764116903e-01  -1.5902361743141247e-01  -1.4272922671900443e-01  -1.6012856320940980e-01  -1.3959606781737943e-01  -1.5982792969175658e-01  -1.5740756554464044e-01  -1.4433367834546837e-01  -1.3733767226669383e-01  -1.3937450817384980e-01  -1.5774893425610753e-01  -1.4187593280856364e-01  -1.6438388731544343e-01  -1.3591869839649043e-01  -1.6438900401298781e-01  -1.2305415058283975e-01  -1.2394621828258828e-01  -1.2049429523738112e-01  -1.3873763111299336e-01  -1.3156572526443577e-01  -1.4380095431946513e-01  -1.0799480204784634e-01  -1.7074985638242471e-01  -4.2026586319766593e-02  -1.4966029515959145e-01  -1.7144524393580440e-01  -1.4181490403925776e-01  -1.1973123552628456e-01  -1.3385772995715053e-01  -1.4169665353955066e-01  -1.6263806445840115e-01  -1.6270765589844663e-01  -1.5213535741446194e-01  -1.5603491372494915e-01  -1.5074724028237424e-01  -1.5170139927643456e-01  -1.4699360906117204e-01  -1.4171221741313655e-01  -1.3789265911481879e-01  -1.4835709222635249e-01  -1.4218805212014013e-01  -1.3494307474629674e-01  -1.3709843350310646e-01  -1.3247885562781397e-01  -1.3413001601827371e-01  -1.3128182012421871e-01  -1.3257970202465449e-01  -1.3751023275992552e-01  -1.4096205553460242e-01  -1.3061116017507363e-01  -1.4322057808066388e-01  -1.3931641997555119e-01  -1.3564694294389948e-01  -1.1018481796542400e-01  -1.3255934698504099e-01  -1.3204471255075864e-01  -1.3470563360397858e-01  -1.2026903930435763e-01  -3.8510656326243127e-02  -4.5564278574908863e-02  -4.2148793063285360e-02  -1.5815857191732902e-01  -1.5296153723542308e-01  -1.5917715664809556e-01  -1.4355944831630363e-01  -1.5214750241237346e-01  -1.1403405221744038e-01  -1.1732515794092176e-01  -1.1667003113121951e-01  -1.3115528247738345e-01  -1.4157314523802725e-01  -1.5056755465877944e-01  -1.4470490270127179e-01  -1.3070555412349694e-01  -1.3707125684432392e-01  -1.3948211691919596e-01  -1.3611182247385184e-01  -1.3094458304591577e-01  -1.3372049902403563e-01  -1.2371270266053948e-01  -1.3111592024929841e-01  -1.3195325936559027e-01  -1.3339140612472400e-01  -1.2845882878062129e-01  -1.3539357019360287e-01  -1.2548791430750730e-01  -1.3621717033749173e-01  -1.3772071210003631e-01  -1.4205707592221381e-01  -1.3647144255595853e-01  -1.4701310897051442e-01  -1.3516688237649413e-01  -1.5118774449653674e-01  -1.3112953068299490e-01  -1.4811075163828774e-01  -1.5352388240977932e-01  -1.5874090041616420e-01  -1.5160546113005627e-01  -1.7000565497811149e-01  -1.6481627947236505e-01  -1.2083935341965532e-01  -1.1595582343708076e-01  -1.5318901049171732e-01  -1.5128423208314862e-01  -1.6464205604674376e-01  -1.3108311384570251e-01  -1.6829199971262765e-01  -1.1837909316612649e-01  -1.4248410630561734e-01  -1.3579773810497814e-01  -1.5292823375391262e-01  -1.1905845185152367e-01  -1.4093400137706075e-01  -1.2856520690636089e-01  -1.3640014266316908e-01  -1.3542995211847619e-01  -1.4222586542594806e-01  -1.3942866119335159e-01  -1.2632213973666290e