<?xml version="1.0"?>
<VTKFile type="UnstructuredGrid"  version="0.1"  >
<UnstructuredGrid>
<Piece  NumberOfPoints="1297" NumberOfCells="2496">
<Points>
<DataArray  type="Float64"  NumberOfComponents="3"  format="ascii">0 0 0  0 1 0  1 1 0  1 0 0  1.1 -0.1 0  -0.1 -0.1 0  1.1 1.1 0  -0.1 1.1 0  0.305349203274881 0.6739299476271479 0  0.305800054005666 0.3295275525907327 0  0.6987712551479316 0.3295120574806406 0  0.699162686876036 0.6740196801759831 0  0.502260229460291 0.5019103741207604 0  0 0.9499999999997918 0  0 0.8999999999995836 0  0 0.8499999999996529 0  0 0.7999999999999998 0  0 0.7500000000003466 0  0 0.7000000000006934 0  0 0.6500000000010401 0  0 0.6000000000013869 0  0 0.5500000000017335 0  0 0.5000000000020587 0  0 0.4500000000018723 0  0 0.4000000000016644 0  0 0.3500000000014564 0  0 0.3000000000012483 0  0 0.2500000000010403 0  0 0.2000000000008322 0  0 0.1500000000006241 0  0 0.100000000000416 0  0 0.05000000000020799 0  0.04999999999989965 0 0  0.09999999999981467 0 0  0.1499999999997036 0 0  0.1999999999995579 0 0  0.2499999999994121 0 0  0.2999999999992664 0 0  0.3499999999991206 0 0  0.3999999999989749 0 0  0.4499999999988292 0 0  0.4999999999986943 0 0  0.5499999999988151 0 0  0.5999999999989468 0 0  0.6499999999990784 0 0  0.69999999999921 0 0  0.7499999999993417 0 0  0.7999999999994734 0 0  0.8499999999996051 0 0  0.8999999999997368 0 0  0.9499999999998684 0 0  1 0.04999999999989965 0  1 0.09999999999981467 0  1 0.1499999999997036 0  1 0.1999999999995579 0  1 0.2499999999994121 0  1 0.2999999999992664 0  1 0.3499999999991206 0  1 0.3999999999989749 0  1 0.4499999999988292 0  1 0.4999999999986943 0  1 0.5499999999988151 0  1 0.5999999999989468 0  1 0.6499999999990784 0  1 0.69999999999921 0  1 0.7499999999993417 0  1 0.7999999999994734 0  1 0.8499999999996051 0  1 0.8999999999997368 0  1 0.9499999999998684 0  0.9499999999997918 1 0  0.8999999999995836 1 0  0.8499999999996529 1 0  0.7999999999999998 1 0  0.7500000000003466 1 0  0.7000000000006934 1 0  0.6500000000010401 1 0  0.6000000000013869 1 0  0.5500000000017335 1 0  0.5000000000020587 1 0  0.4500000000018723 1 0  0.4000000000016644 1 0  0.3500000000014564 1 0  0.3000000000012483 1 0  0.2500000000010403 1 0  0.2000000000008322 1 0  0.1500000000006241 1 0  0.100000000000416 1 0  0.05000000000020799 1 0  -0.1 1.05000000000004 0  -0.1 1.000000000000079 0  -0.1 0.9500000000001624 0  -0.1 0.9000000000003032 0  -0.1 0.850000000000444 0  -0.1 0.8000000000005848 0  -0.1 0.7500000000007256 0  -0.1 0.7000000000008665 0  -0.1 0.6500000000010508 0  -0.1 0.6000000000012352 0  -0.1 0.5500000000014196 0  -0.1 0.500000000001539 0  -0.1 0.4500000000014195 0  -0.1 0.4000000000013 0  -0.1 0.3500000000011588 0  -0.1 0.3000000000010178 0  -0.1 0.2500000000008986 0  -0.1 0.2000000000007579 0  -0.1 0.1500000000006174 0  -0.1 0.1000000000005272 0  -0.1 0.05000000000040083 0  -0.1 2.671196597248127e-13 0  -0.1 -0.0499999999998666 0  -0.0500000000000906 -0.1 0  -1.730560139634463e-13 -0.1 0  0.04999999999975802 -0.1 0  0.09999999999961506 -0.1 0  0.1499999999994613 -0.1 0  0.199999999999302 -0.1 0  0.2499999999991446 -0.1 0  0.2999999999990088 -0.1 0  0.3499999999988296 -0.1 0  0.3999999999986936 -0.1 0  0.4499999999985143 -0.1 0  0.4999999999984002 -0.1 0  0.5499999999985247 -0.1 0  0.5999999999986493 -0.1 0  0.6499999999987955 -0.1 0  0.6999999999989417 -0.1 0  0.7499999999990659 -0.1 0  0.7999999999992116 -0.1 0  0.8499999999993573 -0.1 0  0.8999999999994526 -0.1 0  0.949999999999584 -0.1 0  0.9999999999997226 -0.1 0  1.049999999999861 -0.1 0  1.1 -0.0500000000000906 0  1.1 -1.730560139634463e-13 0  1.1 0.04999999999975802 0  1.1 0.09999999999961506 0  1.1 0.1499999999994613 0  1.1 0.199999999999302 0  1.1 0.2499999999991446 0  1.1 0.2999999999990088 0  1.1 0.3499999999988296 0  1.1 0.3999999999986936 0  1.1 0.4499999999985143 0  1.1 0.4999999999984002 0  1.1 0.5499999999985247 0  1.1 0.5999999999986493 0  1.1 0.6499999999987955 0  1.1 0.6999999999989417 0  1.1 0.7499999999990659 0  1.1 0.7999999999992116 0  1.1 0.8499999999993573 0  1.1 0.8999999999994526 0  1.1 0.949999999999584 0  1.1 0.9999999999997226 0  1.1 1.049999999999861 0  1.05000000000004 1.1 0  1.000000000000079 1.1 0  0.9500000000001624 1.1 0  0.9000000000003032 1.1 0  0.850000000000444 1.1 0  0.8000000000005848 1.1 0  0.7500000000007256 1.1 0  0.7000000000008665 1.1 0  0.6500000000010508 1.1 0  0.6000000000012352 1.1 0  0.5500000000014196 1.1 0  0.500000000001539 1.1 0  0.4500000000014195 1.1 0  0.4000000000013 1.1 0  0.3500000000011588 1.1 0  0.3000000000010178 1.1 0  0.2500000000008986 1.1 0  0.2000000000007579 1.1 0  0.1500000000006174 1.1 0  0.1000000000005272 1.1 0  0.05000000000040083 1.1 0  2.671196597248127e-13 1.1 0  -0.0499999999998666 1.1 0  0.2940403636948751 0.6609133110517512 0  0.2857899172476293 0.6417517015989236 0  0.280490683341332 0.6200799467704616 0  0.2768792079138941 0.5970757229857935 0  0.2744103921422306 0.5735070501580931 0  0.2727291311720725 0.5496972823161534 0  0.2717229848470786 0.5257315964967683 0  0.2714474932002431 0.5017039372742963 0  0.2718683395616737 0.4776643835505847 0  0.2729069571067968 0.4536624794023633 0  0.2746503398734986 0.42982320149561 0  0.2772313306961278 0.4062631784471941 0  0.2809336705750495 0.3833033583844502 0  0.2862756723537355 0.3615823750971973 0  0.2946029423770182 0.3424330205155492 0  0.3181192263287651 0.3129140501302408 0  0.3351491899312881 0.3002376816177749 0  0.3549470543677346 0.2902881305596632 0  0.3758956201059472 0.2821806063923847 0  0.3971032615922945 0.2755755092516997 0  0.4182989420181868 0.2701722407438172 0  0.4393323281681662 0.2658811792389152 0  0.460313756359404 0.2626229329000487 0  0.4813070201640267 0.2606621044424769 0  0.5022982376209566 0.2600071074840462 0  0.5232838918632013 0.260661469857474 0  0.5442818179140529 0.2625810938874443 0  0.5653325163076738 0.2656964589283647 0  0.5863989021839396 0.2700073164857746 0  0.6077233809003266 0.2754091681899268 0  0.629019564282989 0.2820102361462231 0  0.6498651178087845 0.29013330585901 0  0.6695186861103236 0.3000483374953928 0  0.6864176190036376 0.3127256835046697 0  0.710016429873139 0.3425649072119647 0  0.7182446285864632 0.361533047869678 0  0.7235876172320465 0.3832480913402879 0  0.7272336786545933 0.4062531176618712 0  0.7297520149872276 0.4298405979277068 0  0.7314415434770657 0.4536761867498926 0  0.7324027020659409 0.4776349380862947 0  0.7327023004171618 0.5016548218347084 0  0.7322776596892232 0.52566571725125 0  0.7313327648481733 0.5495684982757948 0  0.7297669979296008 0.5733775916813926 0  0.7273979160550501 0.5969661777658418 0  0.7238641331675315 0.6200286594572392 0  0.718608977803497 0.6418099250423875 0  0.7104510632313016 0.6608729602031173 0  0.6868820854572866 0.6907596466460069 0  0.6699890335004406 0.7034983905233565 0  0.6503271262113798 0.7135458745124682 0  0.6294112533908599 0.7217485636686687 0  0.608019550114659 0.7284448788482361 0  0.586582750210818 0.7339043208040977 0  0.5654342637413698 0.73826766858693 0  0.5443082573831038 0.7413961836948362 0  0.523255950977471 0.7432923225261704 0  0.5022495165705629 0.743916889572604 0  0.4812256091653778 0.7432511034116209 0  0.4601770028375697 0.7412545272925131 0  0.439140016081844 0.7379800025412977 0  0.4179756773969211 0.7336699731635682 0  0.3966316615601475 0.7282476722387918 0  0.3753604931396071 0.7215896047796554 0  0.3544041958118264 0.7134112168087495 0  0.3346057979518833 0.7033600220118208 0  0.3175962325660329 0.6905675065684913 0  0.3875206043145292 0.3047238903553448 0  0.2957214171517302 0.4411151926648854 0  0.3871010041607345 0.6990351997967204 0  0.2955287461775931 0.5623642008946875 0  0.7082653797678645 0.5856518166585311 0  0.5965672160799925 0.7060131465615517 0  0.616392105599629 0.3038547023663604 0  0.710163729970951 0.4403503527834468 0  0.7111753061810651 0.5131918868183969 0  0.5538925708881247 0.2892258916813768 0  0.4510259676291831 0.2915888635934648 0  0.4496267205350469 0.712630739217834 0  0.5335900948471268 0.7157439159644702 0  0.2935957132829859 0.4895638530019665 0  0.2992026489248135 0.3937383637383327 0  0.4920645734332219 0.2905487327889298 0  0.3045418018821051 0.6082496244087383 0  0.6993843008189727 0.3914851023078393 0  0.491823570931487 0.7168080771661111 0  0.6383250984339495 0.6928508859217107 0  0.3463555767648276 0.3218572789599795 0  0.6585049838309927 0.3233195117837123 0  0.3463381939405113 0.684415338238339 0  0.6985831522331791 0.6338687096034418 0  0.3105437599935744 0.3494406192777761 0  0.3122998640139549 0.652966788361345 0  0.6777064553185732 0.6751004097986704 0  0.6946372101570227 0.3489929676742964 0  0.3664454349215878 0.692347370806477 0  0.3771231476542369 0.6710401936961689 0  0.3978063966092396 0.6760835152231601 0  0.386663744925501 0.6484397997381754 0  0.408363168723511 0.6524473870926739 0  0.3957693411586105 0.622475260474278 0  0.4218481064791125 0.6259217966963024 0  0.406515863869327 0.5907504134145491 0  0.3697928296217833 0.6176815273666527 0  0.4382786401111952 0.5928907963018675 0  0.41944465264807 0.5533284224960501 0  0.38175197371422 0.5577400616404039 0  0.3975911836613461 0.5169139119090116 0  0.3614362086995994 0.5187508077853634 0  0.3741280393242092 0.4827820462397731 0  0.411913210142437 0.4767571161032034 0  0.3922942863463441 0.4425247563540362 0  0.4263181182764257 0.4355584251506779 0  0.4079054048293417 0.4030237625349979 0  0.4387277594923358 0.3884979596446013 0  0.3756009255396403 0.4068113650203231 0  0.4166682478820023 0.3667272427685677 0  0.4469650250266207 0.6300071017079706 0  0.4703949293473858 0.6027147525512428 0  0.4873372480229944 0.6320958950289305 0  0.5042161140061248 0.6049164216836947 0  0.5203159129135049 0.6322950388219315 0  0.5372337784866014 0.6049570889703499 0  0.5529662529933489 0.6319815996261519 0  0.5699768464675421 0.6047630031147283 0  0.5861242673406462 0.6337432162278946 0  0.6027760334526487 0.5965852234707352 0  0.5881461386471484 0.560786
[...]
<PointData  Scalars="v"> 
<DataArray  type="Float64"  Name="v"  format="ascii">-7.9418866254777183e-22  5.8184173745098800e-22  2.7745219890875050e-21  1.6034302969206454e-21  -4.0707790955407644e-23  6.4549091594871145e-23  -1.8949079736558267e-22  -1.7454333141835094e-23  2.6968764495410044e-04  3.5085894980433068e-04  2.4813043306154203e-04  1.6812851817199921e-04  3.8871526214410989e-04  -1.8574672895782751e-21  -5.0529598981588517e-21  0.0000000000000000e+00  -8.7638776649263025e-20  8.4829652199279335e-20  4.4329921457391668e-20  -4.1684549788169286e-20  4.4289087123616322e-20  -3.6802255496743808e-20  3.2612904454581962e-20  1.9002187916210809e-20  -1.1822309181686151e-20  9.6680203410473004e-21  3.9208641123526396e-20  -4.8707406714373604e-21  6.1307952377013873e-21  -3.1829129603948028e-21  3.8279792792854136e-21  4.7117338328175456e-21  1.7828051826965011e-21  -3.4152301761309237e-21  2.2326365496116869e-22  1.4137224497998141e-21  -1.1524025424115341e-20  -2.7285184002954486e-20  4.3294012268213423e-20  6.3349616497934540e-21  1.0647973960255962e-20  2.6369572243775387e-21  -6.7604697560335343e-21  -1.8355403247943791e-20  1.5541962943607496e-20  -4.3599518142669803e-21  2.4127388542212804e-20  2.2546023755203558e-20  -5.2099894689520112e-21  1.0973922355971572e-21  -4.5903653632575037e-21  1.2742826198093736e-20  1.3178894881707226e-20  -2.3547200172242956e-21  1.3586348066664876e-20  1.3761157531091479e-20  4.2932237742353217e-20  -4.0797760970446342e-20  -2.8895505874057017e-20  1.9434229905913533e-20  2.4247761125311487e-20  -8.5333653181313715e-21  -1.3685438665262318e-21  7.1265912654552159e-21  -2.2535604225614260e-20  1.3090085298023116e-20  7.0087687029140446e-21  3.9137915113477902e-21  -1.3827285512114734e-20  -1.6397258092801745e-20  1.4188004697242090e-21  6.4319312716746348e-21  2.7592182122523607e-20  1.6690233531441434e-20  -6.9936425644122888e-21  -1.1875578456154084e-20  8.0310181948416384e-21  -5.7203108074835674e-21  -2.7684458018674640e-21  -3.9900497340426955e-20  -5.7429497517042027e-20  1.4578709217878036e-20  -3.4196202649008133e-20  -3.3915343959139504e-20  2.7874719049730470e-20  5.7601955028357570e-21  -7.9750937669307108e-22  9.9628596841370478e-21  2.8527908333993644e-21  -6.4528402896284484e-24  2.3806477710381468e-22  -9.0801959263668797e-22  3.9225257775961201e-22  -3.8064245443873825e-21  -7.4555558569711841e-21  7.6954946554602095e-21  6.3083135369521138e-21  -2.3569441207867245e-21  1.3030872976088527e-21  6.3403709765080790e-22  7.0944423776130385e-22  2.7132471313560134e-21  -1.1978781298384984e-21  1.9571754633225438e-21  3.6736794738503320e-21  3.7016743683167524e-22  -1.7454278517121086e-22  -2.7536689318212545e-22  4.4921056487216918e-22  6.1377016159048814e-22  7.9475528314919363e-24  -7.8662717095955522e-23  -4.2338238575259218e-23  -7.8386027046544656e-24  1.7472837406016661e-23  -3.0627194702152158e-22  4.1003171659138123e-23  1.6446999394417901e-22  -2.8019870773598997e-21  -1.5439542143654109e-21  3.4429362364810235e-21  2.7668042897807681e-21  5.3494071621838409e-22  1.2440334523348208e-21  -9.1867321583561089e-22  -1.7163499786286702e-21  8.3687553254420274e-22  7.5670833084118123e-22  2.7120191885739475e-21  2.8117428542150829e-21  7.5043151477444151e-22  -4.2777581163053990e-22  -2.2954574932244695e-22  -2.9107063251224008e-23  1.3874973392026889e-22  -1.2852246215307660e-22  3.9918191872149614e-22  1.7190621751559297e-21  1.9543468753225553e-21  6.6375428551703726e-22  7.9521860862858795e-22  3.9273892701388318e-21  2.9639913936943629e-21  -4.1251709824847752e-21  -4.6717613311593790e-21  2.5548029287751389e-21  3.0189765969480355e-21  -5.5157917603316775e-22  -3.4934568886243916e-22  2.0052491748505031e-23  -1.9683617354726174e-21  7.0658127132601438e-23  1.8581393172927959e-21  1.3682541816006722e-22  -1.9727206011027072e-21  -2.1308974524367787e-21  -1.7705441882958001e-24  2.7441432786932267e-22  2.8962615717362589e-23  3.2235286375999979e-22  4.9567327641917499e-23  1.6209327889629677e-21  3.5915506566792846e-21  1.8682750703018926e-21  -3.3897052091556796e-22  -1.3043025659497052e-21  -2.9095445269514881e-23  9.0369920371439657e-22  2.2633177807806777e-22  -6.5144936396274994e-21  -6.2363968153972669e-21  -2.5045472113179838e-22  -3.5137046956448614e-21  -3.3532080747267689e-21  2.2244778233702477e-21  2.1741903179562495e-21  2.7734089731346336e-22  9.5466501214545179e-22  6.8945233647126921e-22  -1.2206784286546552e-24  1.5414172321565692e-24  2.8123809732744266e-04  2.9887972299987871e-04  3.2078862359380509e-04  3.4658939080020362e-04  3.7067204709246882e-04  3.9081866563321123e-04  4.0579346973564578e-04  4.1477499823949705e-04  4.1846109117618917e-04  4.1580247165250151e-04  4.0748767765312513e-04  3.9455207246893249e-04  3.7902192147898627e-04  3.6543004196869136e-04  3.5464528511730813e-04  3.4351329236473381e-04  3.4111399606245884e-04  3.4072019456218015e-04  3.4178828378725985e-04  3.4418825858296189e-04  3.4657532483928249e-04  3.4655994950288222e-04  3.4436319389279514e-04  3.4048551302156139e-04  3.3497932258425510e-04  3.2802985109504424e-04  3.1997317448315983e-04  3.1039927815647587e-04  2.9884103717629719e-04  2.8620432740067295e-04  2.7460684231318691e-04  2.6396009582655544e-04  2.5473162092021868e-04  2.4889234027376068e-04  2.4993506585726681e-04  2.5298756781342988e-04  2.6040106385513142e-04  2.7021906682368421e-04  2.7952785499349604e-04  2.8565182268596134e-04  2.8819478801973180e-04  2.8510764486260352e-04  2.7616464122831520e-04  2.6287550043350820e-04  2.4520430828110079e-04  2.2449479292014723e-04  2.0507292638983639e-04  1.8872573280159978e-04  1.7500144956217637e-04  1.6088770752997630e-04  1.6047057214630168e-04  1.6507724657107353e-04  1.7103476443814259e-04  1.7790133984763555e-04  1.8561194791555393e-04  1.9414099067725592e-04  2.0214128081309899e-04  2.0971529864035108e-04  2.1584552232280970e-04  2.2117258944196047e-04  2.2572767442423849e-04  2.2939729413569651e-04  2.3192096362409229e-04  2.3374474548034109e-04  2.3682950526156493e-04  2.4094235139846646e-04  2.4738687117474572e-04  2.5627774312914097e-04  3.6973057081400552e-04  4.1754055731722383e-04  2.6620012874500198e-04  3.8393368349078885e-04  2.4531580008909921e-04  2.0536088653033859e-04  3.0182713871146274e-04  2.9409397818148350e-04  2.8734685308152541e-04  3.3375848381292069e-04  3.6668985542732854e-04  2.5361613806060192e-04  2.2896216915597583e-04  4.1925827150019298e-04  3.9927533410912555e-04  3.5980406512274051e-04  3.4501724213090547e-04  2.8649301465100607e-04  2.4256854252302539e-04  1.8176343838882333e-04  3.6712657427117283e-04  2.7299346480889636e-04  2.6254103807916420e-04  1.9626739785911376e-04  3.6110906786134759e-04  2.8588445602173483e-04  1.6184083548056340e-04  2.5169784345041606e-04  2.6406800668924883e-04  2.9036069763226763e-04  2.8621541353384073e-04  3.1101890152790645e-04  3.0722186574473902e-04  3.3456201649445662e-04  3.3040347282488309e-04  3.6419390854739006e-04  3.3995540193938040e-04  3.5490867879911595e-04  3.8842221369935284e-04  3.9173540098881284e-04  4.1352018668830437e-04  4.1900303008922287e-04  4.2902312540735285e-04  4.2343920781661879e-04  4.2823381732118841e-04  4.2250668760206660e-04  4.2041191652833785e-04  4.1269562807469737e-04  4.2151060323952338e-04  4.0713004245812422e-04  3.2282805995041008e-04  3.3881246966167985e-04  3.1063026187226519e-04  3.2485354485964194e-04  2.9867320456594953e-04  3.1090222001015956e-04  2.8380002954253651e-04  2.9594607902920712e-04  2.6501371381893910e-04  2.8599787913315301e-04  3.1860414429337445e-04  3.0411040752355506e-04  3.3291632306008009e-04  2.7135024078721515e-04  2.8903412408390940e-04  2.4861293422054825e-04  2.8480052010488368e-04  4.0186968428824587e-04  4.1729775647761114e-04  4.0027637400754697e-04  4.0376019379952875e-04  2.8222863560877507e-04  3.9111990685445036e-04  2.7593367576858352e-04  2.6043430497409126e-04  3.8900998660523501e-04  3.9401825125816981e-04  3.7875382259786147e-04  3.8185059743612958e-04  3.9163127140107574e-04  3.7578034453369724e-04  3.6460251459741671e-04  3.5620099309106716e-04  3.6598040553248473e-04  3.4913065693389862e-04  3.3578475024756687e-04  3.3021497915020743e-04  3.3765577642933708e-04  3.1825342169782976e-04  3.1296669047242568e-04  3.0367706755201853e-04  3.0668584921800522e-04  3.4874834308591131e-04  2.6084363326382459e-04  2.4475794010006942e-04  2.7412980938915961e-04  2.9692303478462130e-04  2.3759280626597945e-04  2.2372451471650405e-04  2.2775922644643003e-04  3.6911902272802080e-04  3.6114058041507486e-04  2.8113872663840966e-04  3.8390693483302712e-04  4.3194883072706497e-04  4.2259651387877148e-04  4.1140178585512792e-04  4.3292571394244137e-04  4.3064240555575073e-04  4.1155369101704246e-04  4.0020992299585754e-04  3.9840893054966868e-04  3.9871287890852979e-04  3.8272002407645092e-04  4.1003064108050127e-04  3.7776006870254467e-04  3.8095499196367166e-04  4.1886020257507858e-04  4.1511297333218566e-04  3.1737836859452989e-04  3.1144103839086804e-04  3.2834673035087779e-04  3.1848205154066614e-04  3.0353560931921809e-04  3.0615874519194028e-04  3.1561085106300129e-04  4.0936265569852589e-04  3.9579994861877501e-04  4.2870265277620320e-04  3.5413008398118260e-04  2.9418256755275402e-04  2.9015420060772969e-04  2.4981419250974843e-04  2.2883335859208317e-04  3.2122000444825648e-04  3.3735380498073727e-04  3.4310737219204031e-04  3.1923890048492172e-04  3.5811787731527265e-04  3.2736231838941313e-04  3.6421094858118047e-04  3.8636742822584019e-04  3.8611319427204593e-04  3.6580137369010064e-04  4.2189890642442589e-04  4.2317651944044746e-04  2.4799282402391659e-04  2.9980789644123231e-04  2.9827488716317220e-04  3.8248777478344431e-04  2.5814068744884684e-04  2.7723858391755023e-04  3.0328058376904733e-04  2.2954138332545733e-04  2.6211476039731855e-04  3.2665160776285156e-04  2.8709424005767448e-04  3.7165261041398296e-04  3.6349976329917363e-04  3.6890115274466960e-04  3.1323377692389588e-04  3.3260340083683188e-04  2.3531001474400186e-04  2.9085399454037918e-04  3.0459448198703502e-04  2.1307279716121713e-04  2.2565277691281591e-04  2.2077534921332074e-04  1.9188428747577056e-04  1.7233504413341773e-04  2.0405949924006119e-04  3.0165665041389334e-04  3.7588769225230137e-04  2.0832603669176713e-04  3.1283073658384275e-04  3.8526721537529221e-04  3.4988553922285189e-04  2.5956616620043457e-04  1.7208754300430601e-04  2.4981462706821328e-04  2.6322575468257139e-04  4.1409649955052332e-04  3.5295376828506673e-04  2.9547402401553565e-04  3.6604305200621187e-04  4.0937466743494271e-04  4.0056594136572650e-04  2.6581117826619084e-04  3.4273518768611658e-04  2.1123509960449736e-04  2.5275946879664758e-04  3.2284687678622848e-04  3.5133438940515902e-04  4.2743492582385028e-04  4.0582683383493732e-04  3.7685320731238153e-04  3.4920976511295504e-04  3.1356832899595100e-04  3.0684571248439183e-04  2.6416511701393870e-04  3.8438161253362933e-04  2.7169574333467394e-04  4.1246166594818747e-04  2.9328275593646855e-04  3.3478731277511008e-04  2.2074291360105994e-04  2.4164865475541440e-04  3.2869150906103593e-04  3.5108888495259471e-04  2.4682720497518572e-04  2.9460213489461586e-04  3.3965556223401533e-04  2.9441730603334444e-04  4.0474957411569735e-04  3.6241072086116169e-04  2.8264940287251827e-04  3.5707223793364029e-04  3.5203759583422346e-04  2.3379355209362867e-04  4.0453047178424389e-04  3.9671294339899029e-04  3.8357490740410457e-04  2.5573967828590704e-04  3.6767663811380897e-04  4.2455982269332321e-04  3.9709273377281631e-04  3.6726472996022552e-04  3.2937380314463553e-04  3.7527048381986842e-04  3.9567299377890239e-04  2.8123353685024350e-04  3.8078268261807098e-04  2.1499983936212818e-04  2.3904489109517892e-04  2.7903987862333205e-04  3.8187371950721354e-04  2.7421330043242160e-04  2.5808850113808905e-04  3.3927366938520261e-04  2.3658463651642740e-04  2.5668591942838644e-04  1.5468454188155675e-04  3.4767366472850868e-04  2.9551525249877145e-04  3.0452030622249042e-04  4.0921360999906375e-04  3.4311289214668548e-04  2.6875184995304871e-04  3.1624885558511137e-04  2.9917747581381524e-04  4.0745004282347031e-04  2.8165279364605569e-04  3.9487503031982189e-04  2.9430140921949782e-04  2.5913116217872819e-04  3.0646336186777119e-04  3.1201759899621617e-04  3.3694467714062172e-04  3.9292701503033852e-04  4.2761697365168696e-04  4.0247105131541329e-04  3.9629823337639395e-04  3.6563034669539416e-04  4.2889231303173205e-04  3.7009867373068048e-04  3.6819065975880104e-04  3.1579020105478674e-04  1.9266265569075163e-04  2.0913302486231828e-04  2.1882401102247845e-04  2.3350050434150553e-04  1.7169851949865782e-04  1.5756611096294458e-04  3.2342925849030639e-04  3.2992551242773648e-04  3.0679505539038066e-04  2.7980902127263416e-04  2.5283265905366086e-04  3.2966238923142529e-04  2.0550739520511212e-05  4.1453527102909942e-05  3.8766505254224968e-05  2.9431917613963611e-05  3.7571745761239960e-04  3.0535372691610540e-04  2.4834950857063448e-04  2.6690760265467517e-04  1.6829055229157259e-04  1.5746962399311250e-04  2.3841798594302307e-04  3.9123242773418594e-04  3.5252732139340142e-04  1.5453197861796543e-04  1.4090756633827739e-04  1.4092489218949625e-04  1.2530935310958431e-04  1.2476652020243961e-04  2.4137979428953918e-05  4.6016497137301074e-05  4.2993475329037083e-05  2.7284467396804997e-05  5.3349211683930415e-05  4.2766312553987842e-05  6.9919248101806670e-05  1.0844760648020732e-04  1.1006518937296917e-04  1.3659390558320308e-04  1.5046052818235941e-04  1.0303819398849660e-04  7.9556770350932941e-05  5.6851718950531394e-05  6.2770009217117504e-05  1.1032686721377738e-04  6.2754736036871591e-05  1.1315051517709563e-04  2.0729215666395811e-05  1.2744752393358956e-04  1.4240242495018460e-04  3.3662839524048279e-05  3.7558809719477702e-05  5.3437856365899407e-05  3.3020163774299141e-04  3.2725235161968773e-04  3.0775949207725633e-04  2.9649653875660529e-04  2.7813037915211397e-04  2.6296014752203725e-04  2.8400168290182117e-04  2.4221558470752559e-04  2.5514505208997358e-04  2.2286790828173841e-04  2.4560963206772182e-04  2.4759966754063934e-04  2.2642512705751554e-04  2.2170986957753173e-04  2.3681382519279341e-04  2.0204939040529920e-04  1.9450484067523100e-04  1.7433308976300160e-04  1.7982161034410226e-04  1.6332423905004507e-04  3.7454315788989047e-04  2.3812958880482782e-04  2.3117414867902323e-04  2.2007940114953154e-04  2.0838643856722759e-04  2.1445048804109556e-04  1.9192114555197792e-04  1.9607250870117679e-04  1.7204503288893361e-04  1.7463671326378323e-04  2.5975589294092408e-04  3.9302942134855124e-04  3.4472686503457702e-04  2.6034619621305069e-04  1.8392063739277906e-04  1.5149545916266161e-04  1.5515688941103139e-04  1.4936387703601205e-04  2.1758417504864745e-04  2.3379423797344944e-04  2.6200450696412506e-05  1.4991753823249013e-04  1.8008810098306711e-04  9.1425009379373173e-05  8.9748010718091530e-05  1.0545472903658248e-04  1.0888629542977628e-04  2.1055978712167771e-04  1.2530757587753534e-04  1.8533463930983253e-04  2.9742925147716882e-05  2.5606779365592061e-05  4.0228209780454118e-05  1.7487223231378639e-04  1.2484758904867570e-04  1.1482459388286254e-04  1.3125917517072355e-04  1.4737550616075376e-04  1.7393550310693831e-04  8.5842067976157996e-05  1.0090597923622590e-04  1.2747030526695518e-04  1.5418889309635621e-04  1.2627400650763409e-04  1.5584369894937154e-04  1.2356223550346777e-04  1.4794737340447707e-04  1.9262782393665291e-04  2.3263171846934767e-04  1.9396344647131008e-04  2.3366393089961602e-04  1.9266509981076427e-04  2.3091884638749653e-04  1.8916347573065632e-04  2.2699366876669121e-04  1.8455601934516349e-04  2.2168027159243645e-04  1.7900143633185354e-04  2.1518197343652152e-04  1.7218452951842949e-04  2.0787904410087340e-04  1.1843750917568900e-04  1.4186207561814258e-04  1.1266967591211796e-04  1.3552843769847278e-04  1.0716797789401693e-04  1.2939029141832530e-04  1.0132052187233186e-04  1.2270842436698694e-04  1.2316012100276158e-04  1.2111676360615590e-04  2.1897601935776353e-04  1.3920636202115127e-04  7.3945969067662660e-05  7.4296063070986647e-05  1.6734769657779201e-04  2.0006784160565011e-04  1.6047259007706763e-04  1.9182866907100222e-04  1.5256451212461840e-04  9.6814763322644173e-05  1.1638078232018440e-04  9.1382594111597687e-05  1.1064101029473705e-04  8.7455809851266596e-05  1.8115577618862833e-04  1.4642785374396517e-04  1.6065905236791654e-04  1.3466800096806691e-04  1.2815571322656450e-04  2.2852602218894190e-04  2.1932379435878253e-04  1.5140968809163358e-04  9.7314804045547533e-05  2.4692649327705279e-04  1.4758283696059680e-04  1.6369382932746970e-04  1.3560105250498748e-04  2.6113262342774055e-04  1.3928882339450338e-04  1.1361698051454944e-04  9.6090151269872777e-05  7.9899977270792328e-05  7.9965940666660096e-05  6.3286757945303258e-05  1.7664356595417375e-04  5.7541352058627771e-05  2.6915867058340898e-04  9.9132207919485054e-05  8.5664103934721532e-05  1.1124964743201369e-04  1.5050074092902156e-04  9.1164980843328470e-05  1.1356822537847467e-04  6.5045206229516237e-05  2.0339370862366063e-04  1.1385326722959428e-05  1.6618898687582290e-04  1.1969030075650811e-04  9.1986505052814684e-05  1.2466314773253395e-04  1.6187542949561390e-04  1.4673963373500784e-04  3.1264023117600481e-04  2.2515040427140639e-04  2.2782949742894930e-04  2.0676904809517103e-04  2.1464599115688445e-04  1.8894418629386223e-04  1.9658347795683103e-04  1.6549163555527736e-04  1.7244059930474924e-04  1.6400234276714771e-04  2.0937041682841102e-04  1.7910375047948859e-04  2.1270321770909523e-04  1.8289883917832464e-04  2.1491161552027852e-04  1.8449130575474201e-04  2.1605222456460714e-04  1.2307780793611956e-04  1.1146539714493097e-04  5.6905975095453531e-05  7.2043364934329339e-05  1.8259435130000363e-04  1.9531729473657418e-04  4.1432539313303867e-05  1.8894404634800996e-04  5.4574068522447796e-05  9.5156801076391008e-05  1.5106335486800217e-04  1.7700448904426150e-05  2.0134769160602100e-05  2.5776169669092986e-05  3.3320614710781080e-04  2.7167488068944820e-04  2.0068384777434202e-04  1.6997390835507781e-04  2.1695656091679535e-04  8.5681976070075142e-05  7.8073832637803767e-05  8.0989642858017314e-05  1.7198182076304697e-04  2.1543229320141854e-04  2.4979005830666457e-04  2.6075390590022258e-04  2.1345935437178663e-04  2.5815961225574843e-04  2.9610351938993284e-04  3.0301918749862808e-04  2.5343899524176821e-04  2.9391920908882505e-04  2.4019849940906511e-04  2.8322003775516362e-04  3.2932999759504298e-04  3.2265453275383737e-04  2.6770537717137592e-04  3.1126821055174294e-04  2.4831271925364632e-04  2.8482683472518791e-04  3.3208599658516376e-04  3.0988425189566965e-04  2.6053466088934356e-04  2.9305174132883736e-04  2.3391330408248652e-04  2.6447744936673815e-04  2.0280755232300696e-04  2.2352418302241692e-04  1.5206101876183314e-04  1.4314468599811267e-04  1.5707433395237367e-04  1.9703308263026908e-04  2.2428559148218274e-04  1.4179208974664142e-04  1.3032993782850083e-04  2.5382104735734628e-04  2.6077801765266674e-04  2.2480884738397392e-04  2.3928005556794548e-04  1.2101783672372264e-04  1.3458879962344837e-04  1.6711282307653384e-04  2.3429851029801855e-04  3.0896140338420013e-04  1.6222992023612762e-04  1.8518145116679392e-04  2.3908272428395448e-04  1.1880459338327489e-04  1.1337360274398107e-04  2.7449615151288578e-04  2.3228373822396233e-04  1.0044703353428902e-04  2.0884472432817610e-04  2.2109873256150717e-04  1.9456619695590647e-04  1.7462058834252436e-04  6.6768220439926033e-05  6.6522978007219383e-05  1.4512422805812553e-04  2.3787352832499225e-04  3.2770161998090067e-04  1.3231502854694192e-04  1.1567929711134495e-04  1.0274682262928976e-04  7.6499600796940356e-05  3.8264711749094380e-05  1.3359441945984905e-04  9.4142733206601384e-05  6.4724187478703933e-05  7.6325296560507608e-05  8.7834750589923751e-05  2.0747532198419087e-04  6.5645832419796788e-05  5.6924966813543075e-05  7.5113449592776891e-05  3.4645927116930671e-04  3.6289975644039445e-04 