<?xml version="1.0"?>
<VTKFile type="UnstructuredGrid"  version="0.1"  >
<UnstructuredGrid>
<Piece  NumberOfPoints="1297" NumberOfCells="2496">
<Points>
<DataArray  type="Float64"  NumberOfComponents="3"  format="ascii">0 0 0  0 1 0  1 1 0  1 0 0  1.1 -0.1 0  -0.1 -0.1 0  1.1 1.1 0  -0.1 1.1 0  0.2511354732829663 0.6993068931432163 0  0.2511288550452331 0.300644386974339 0  0.7488878803834361 0.3006561628544578 0  0.7488874756491307 0.6993070558936137 0  0.5000086349865369 0.4999767458855263 0  0 0.9499999999997918 0  0 0.8999999999995836 0  0 0.8499999999996529 0  0 0.7999999999999998 0  0 0.7500000000003466 0  0 0.7000000000006934 0  0 0.6500000000010401 0  0 0.6000000000013869 0  0 0.5500000000017335 0  0 0.5000000000020587 0  0 0.4500000000018723 0  0 0.4000000000016644 0  0 0.3500000000014564 0  0 0.3000000000012483 0  0 0.2500000000010403 0  0 0.2000000000008322 0  0 0.1500000000006241 0  0 0.100000000000416 0  0 0.05000000000020799 0  0.04999999999989965 0 0  0.09999999999981467 0 0  0.1499999999997036 0 0  0.1999999999995579 0 0  0.2499999999994121 0 0  0.2999999999992664 0 0  0.3499999999991206 0 0  0.3999999999989749 0 0  0.4499999999988292 0 0  0.4999999999986943 0 0  0.5499999999988151 0 0  0.5999999999989468 0 0  0.6499999999990784 0 0  0.69999999999921 0 0  0.7499999999993417 0 0  0.7999999999994734 0 0  0.8499999999996051 0 0  0.8999999999997368 0 0  0.9499999999998684 0 0  1 0.04999999999989965 0  1 0.09999999999981467 0  1 0.1499999999997036 0  1 0.1999999999995579 0  1 0.2499999999994121 0  1 0.2999999999992664 0  1 0.3499999999991206 0  1 0.3999999999989749 0  1 0.4499999999988292 0  1 0.4999999999986943 0  1 0.5499999999988151 0  1 0.5999999999989468 0  1 0.6499999999990784 0  1 0.69999999999921 0  1 0.7499999999993417 0  1 0.7999999999994734 0  1 0.8499999999996051 0  1 0.8999999999997368 0  1 0.9499999999998684 0  0.9499999999997918 1 0  0.8999999999995836 1 0  0.8499999999996529 1 0  0.7999999999999998 1 0  0.7500000000003466 1 0  0.7000000000006934 1 0  0.6500000000010401 1 0  0.6000000000013869 1 0  0.5500000000017335 1 0  0.5000000000020587 1 0  0.4500000000018723 1 0  0.4000000000016644 1 0  0.3500000000014564 1 0  0.3000000000012483 1 0  0.2500000000010403 1 0  0.2000000000008322 1 0  0.1500000000006241 1 0  0.100000000000416 1 0  0.05000000000020799 1 0  -0.1 1.05000000000004 0  -0.1 1.000000000000079 0  -0.1 0.9500000000001624 0  -0.1 0.9000000000003032 0  -0.1 0.850000000000444 0  -0.1 0.8000000000005848 0  -0.1 0.7500000000007256 0  -0.1 0.7000000000008665 0  -0.1 0.6500000000010508 0  -0.1 0.6000000000012352 0  -0.1 0.5500000000014196 0  -0.1 0.500000000001539 0  -0.1 0.4500000000014195 0  -0.1 0.4000000000013 0  -0.1 0.3500000000011588 0  -0.1 0.3000000000010178 0  -0.1 0.2500000000008986 0  -0.1 0.2000000000007579 0  -0.1 0.1500000000006174 0  -0.1 0.1000000000005272 0  -0.1 0.05000000000040083 0  -0.1 2.671196597248127e-13 0  -0.1 -0.0499999999998666 0  -0.0500000000000906 -0.1 0  -1.730560139634463e-13 -0.1 0  0.04999999999975802 -0.1 0  0.09999999999961506 -0.1 0  0.1499999999994613 -0.1 0  0.199999999999302 -0.1 0  0.2499999999991446 -0.1 0  0.2999999999990088 -0.1 0  0.3499999999988296 -0.1 0  0.3999999999986936 -0.1 0  0.4499999999985143 -0.1 0  0.4999999999984002 -0.1 0  0.5499999999985247 -0.1 0  0.5999999999986493 -0.1 0  0.6499999999987955 -0.1 0  0.6999999999989417 -0.1 0  0.7499999999990659 -0.1 0  0.7999999999992116 -0.1 0  0.8499999999993573 -0.1 0  0.8999999999994526 -0.1 0  0.949999999999584 -0.1 0  0.9999999999997226 -0.1 0  1.049999999999861 -0.1 0  1.1 -0.0500000000000906 0  1.1 -1.730560139634463e-13 0  1.1 0.04999999999975802 0  1.1 0.09999999999961506 0  1.1 0.1499999999994613 0  1.1 0.199999999999302 0  1.1 0.2499999999991446 0  1.1 0.2999999999990088 0  1.1 0.3499999999988296 0  1.1 0.3999999999986936 0  1.1 0.4499999999985143 0  1.1 0.4999999999984002 0  1.1 0.5499999999985247 0  1.1 0.5999999999986493 0  1.1 0.6499999999987955 0  1.1 0.6999999999989417 0  1.1 0.7499999999990659 0  1.1 0.7999999999992116 0  1.1 0.8499999999993573 0  1.1 0.8999999999994526 0  1.1 0.949999999999584 0  1.1 0.9999999999997226 0  1.1 1.049999999999861 0  1.05000000000004 1.1 0  1.000000000000079 1.1 0  0.9500000000001624 1.1 0  0.9000000000003032 1.1 0  0.850000000000444 1.1 0  0.8000000000005848 1.1 0  0.7500000000007256 1.1 0  0.7000000000008665 1.1 0  0.6500000000010508 1.1 0  0.6000000000012352 1.1 0  0.5500000000014196 1.1 0  0.500000000001539 1.1 0  0.4500000000014195 1.1 0  0.4000000000013 1.1 0  0.3500000000011588 1.1 0  0.3000000000010178 1.1 0  0.2500000000008986 1.1 0  0.2000000000007579 1.1 0  0.1500000000006174 1.1 0  0.1000000000005272 1.1 0  0.05000000000040083 1.1 0  2.671196597248127e-13 1.1 0  -0.0499999999998666 1.1 0  0.2509374256436531 0.6745545671592831 0  0.250898247081086 0.6496680291432498 0  0.2508816998321481 0.6247470401792308 0  0.2508720635122156 0.599805759792014 0  0.2508682610557652 0.5748546171578036 0  0.2508650084501544 0.5498981723603226 0  0.2508643518893181 0.5249380111804318 0  0.2508630802746645 0.4999769186616329 0  0.2508630359949225 0.4750153358384666 0  0.250863674671238 0.4500546718674309 0  0.2508659288256863 0.4250975126907373 0  0.2508689403299008 0.4001457083811991 0  0.2508765142399098 0.3752036997776617 0  0.250893103059912 0.3502808757635649 0  0.2509306032934546 0.3253949026200378 0  0.2758754126365964 0.3003619520669554 0  0.3007391130833938 0.3002346831418227 0  0.3256388118805385 0.3001338297569476 0  0.3505519060846794 0.3000474449422686 0  0.3754669903280882 0.299976441598727 0  0.4003797592146761 0.2999136918009379 0  0.4252889998268201 0.2998608172975279 0  0.4501967386263128 0.299821493929071 0  0.4751031617213753 0.2997976855659832 0  0.5000089390129474 0.2997902047101724 0  0.5249145080186938 0.2997995085896181 0  0.549820862341903 0.2998245906218842 0  0.574729138540934 0.2998636636242922 0  0.5996385476161928 0.2999191504330086 0  0.6245526975181803 0.2999841220917167 0  0.6494685259564286 0.3000575825494874 0  0.6743803595247782 0.3001442442334117 0  0.6992783078623408 0.3002443246015084 0  0.7241394830823232 0.3003723136076683 0  0.7490808207195361 0.325412614276156 0  0.7491202651409228 0.3502933768799332 0  0.7491368282579235 0.3752141074337816 0  0.7491456077400707 0.4001545664490895 0  0.7491497736771574 0.42510522229196 0  0.7491526209535044 0.4500612316589095 0  0.7491544616390446 0.4750204659316709 0  0.7491556779912291 0.4999813931767057 0  0.7491566386720649 0.5249425532808396 0  0.7491561031214904 0.5499018419466369 0  0.7491537496809324 0.5748580588039076 0  0.7491501461047971 0.5998086337684272 0  0.7491390345537916 0.6247486788083478 0  0.7491212932044877 0.6496696810628712 0  0.7490815136936718 0.6745507969116074 0  0.7241396164658397 0.6995875401114092 0  0.6992788194973343 0.6997131918995738 0  0.6743813937816131 0.6998129905697359 0  0.6494691298969762 0.6998980331472775 0  0.6245528762536959 0.6999717328541638 0  0.599637917147238 0.700035677665345 0  0.5747285763386284 0.7000909190766832 0  0.5498204485304552 0.7001299647854631 0  0.5249143714049295 0.7001544272511723 0  0.5000095276401545 0.7001629456117409 0  0.4751044019945579 0.7001547616321901 0  0.4501982986420381 0.7001304163518484 0  0.4252910381713909 0.7000906060709563 0  0.4003811839502368 0.7000373245096919 0  0.3754674790586107 0.6999744650443913 0  0.3505527870937267 0.6999027772668625 0  0.3256408335773958 0.6998168090477955 0  0.3007422497574754 0.6997165627510867 0  0.2758797142571835 0.6995887743085347 0  0.3630268636815861 0.3216675417165966 0  0.2724581683030673 0.4375688704658464 0  0.3630284979134034 0.678283145560951 0  0.2724599728216835 0.5623834288262024 0  0.7290608477928679 0.5867976048121781 0  0.6120828441619154 0.6793931438076818 0  0.6359324940818902 0.3212788449961076 0  0.7290737641071047 0.4367856808922436 0  0.7281328651719063 0.5118205283165436 0  0.5615737161568479 0.3198469143870352 0  0.4387231586026523 0.3216608093185844 0  0.4372709410566921 0.6787122878614049 0  0.5373639643333227 0.6792342187179758 0  0.2724545777518103 0.4874941225139979 0  0.2707083293550292 0.3875523485359817 0  0.4877523197003688 0.323436998986671 0  0.2766292550998689 0.6102994591988204 0  0.7237699347941972 0.3856325292144122 0  0.4875580064687126 0.6792202530587083 0  0.6620306545285763 0.6785696922920204 0  0.3126910510582497 0.3237904533389854 0  0.68761949731988 0.3251165382805094 0  0.3134237538584487 0.6782458709359032 0  0.7268862017392251 0.6387162611482399 0  0.2719759445900696 0.3381172618227415 0  0.274748841661521 0.6600999569169107 0  0.711584757756775 0.6785019211326351 0  0.728920197103213 0.3374063955344977 0  0.3381558740706667 0.6782315026392882 0  0.3510530395441454 0.6568710129186293 0  0.3755698289478395 0.6567016543883354 0  0.3630816941351502 0.6350002322616807 0  0.3884823392930635 0.6347372938147554 0  0.3750200632999158 0.6103523583210615 0  0.4051326274058089 0.6101468303882358 0  0.3887384487000577 0.5807783353598845 0  0.3455662982798741 0.6099978405978518 0  0.4251643911107197 0.5801349952130674 0  0.4045178817529747 0.5463009473519923 0  0.362479248923638 0.5524435328256276 0  0.3808106488149499 0.5138817567491086 0  0.3417594299190752 0.5162385138050886 0  0.3552346605332173 0.4819223705272828 0  0.3965267214441206 0.4771474902011492 0  0.3738501409145333 0.4449882356703879 0  0.4118985304168463 0.4407150370446157 0  0.3897262817214774 0.410428085336098 0  0.4249787046096942 0.4005135684856564 0  0.3533822916706095 0.4102488484739309 0  0.3984869208129858 0.37960390037863 0  0.4344999709055188 0.6112854188109741 0  0.4625131334295907 0.5869300790723413 0  0.4822894128345638 0.6110968212854238 0  0.5023405646279328 0.5882035133059441 0  0.5214610427011854 0.6112962826029812 0  0.5412148258178463 0.5888835506158347 0  0.56011657547745 0.6125692157215298 0  0.5795016379347845 0.5905793801291415 0  0.5992328763338348 0.6171881985995288 0  0.6170001774493072 0.5863526537461431 0  0.599238647704
[...]
<PointData  Scalars="v"> 
<DataArray  type="Float64"  Name="v"  format="ascii">-3.5575938725302600e-22  -1.8699993007374259e-22  1.1225659834633889e-22  -2.3599097066960440e-22  1.3446741012031623e-23  1.6907461484330003e-23  -2.1630335176214277e-24  9.8362503775586749e-24  -1.6800494089133313e-04  -1.6693173933431148e-04  -1.6633774101932171e-04  -1.6756215617479348e-04  -3.3746075635381040e-05  1.0850728924253981e-21  2.1485537959057032e-21  -6.7943976042407108e-21  -6.9266690986127669e-21  2.0315359802315077e-21  -4.2861423289690373e-21  -2.9251959095804955e-21  -7.8434912432775005e-21  -6.0221476377109299e-21  9.9493406177636009e-21  9.7379651614446388e-21  -7.9320059009322616e-21  8.7735043355847138e-23  -4.3638211213015834e-21  -5.6062240023627909e-21  7.2949925514287025e-21  -5.0914669590936239e-21  -5.3996479746681574e-22  -4.8104899116728937e-22  7.9671250429917073e-22  2.3057717869098065e-22  -5.0310099125134947e-22  -1.2150269403188840e-21  -7.2721548542202143e-22  3.1104123997661570e-22  1.2576450224999288e-21  -6.9424197863425084e-22  3.1655119595363054e-22  1.4732079914092403e-21  1.4331560983420922e-21  -7.4383733180100060e-22  -9.8300576346425368e-22  2.2770476582623701e-22  4.2999597718978429e-22  -4.8397044524972429e-22  -3.4761315788927912e-22  1.3329002990980862e-23  3.9184266459121562e-22  7.4128693185930247e-22  1.4863518751469999e-21  -3.1233923597881888e-21  3.0215078737116822e-21  1.6900948913854816e-21  2.1649853365557006e-21  8.7123887842061224e-21  -4.2695813475443104e-21  -1.0256954261913287e-20  6.0620478129187837e-22  1.7072661934848353e-22  -1.0923855414327848e-21  -1.6172108884343218e-21  4.0112350472743511e-21  5.9778066265540057e-21  1.8899243388523155e-21  -6.7475378032875902e-22  -2.0556521050293434e-21  8.6603252556031054e-22  -7.5590096806905234e-22  -4.7607801167273315e-22  -7.1707254215517632e-22  -1.7837244700268646e-21  -1.1679282224496674e-21  9.3793542112608819e-22  -1.5910563768589918e-21  4.3390568804142666e-21  -6.7066556361679563e-22  -3.1921416221760413e-21  -2.6226254497684791e-21  1.8664784956861704e-21  -4.2509519017995059e-22  -1.6938637269416542e-23  -9.6680281549191595e-22  -1.1106023296527629e-21  6.5646241096124379e-22  -8.1395204177202488e-22  -5.0159610695122284e-22  -1.4061795461961613e-23  -1.7338924547702097e-23  1.7687039178223663e-22  2.2287677843284852e-22  -9.2128508122039437e-22  -9.4950820081943030e-22  -1.1438059776483509e-22  -2.6910579211708821e-22  -6.3953758189177625e-22  -1.1653031824463352e-21  -4.3702109030427476e-22  1.1727274567534865e-21  5.8216986540326214e-22  -4.0690450414206359e-22  -4.2855228771146227e-22  -5.6357582837476690e-22  -4.2364831671667439e-22  4.4968401431998523e-22  -2.5191762930273390e-22  -3.3581148335699493e-22  1.5279310635180767e-23  -6.6985610610877540e-23  1.7280959435269281e-24  -1.9666952914293592e-23  -2.1458484873127063e-23  7.6024279304398551e-23  5.2685975464262120e-23  -8.5771932174989005e-23  -1.6758978549515845e-22  -1.1409793591487399e-22  1.2695936826025535e-22  1.1266000410316112e-22  -4.4991694596713930e-23  4.9968286113656373e-23  1.3256094164223500e-22  9.7502608904535186e-23  -1.3168000697707598e-22  -1.1104826506347681e-22  1.5902206748259973e-23  5.0465918176124680e-23  -2.5238743238801204e-24  -1.1929788171354382e-22  9.1758329757744875e-23  5.6164605862119867e-23  -2.2052770618775383e-23  -7.2290412448585137e-24  -9.3649882933117244e-24  -3.1353868348498631e-23  1.6580538637182492e-22  2.4394813776865983e-23  -1.8101707834703141e-22  2.3532326934316343e-22  2.5394545591236038e-22  5.4270264954967212e-22  9.5195488033360222e-22  -3.9783227214541476e-22  -1.3487875052975000e-21  -1.4472481705402426e-22  1.3770036044325255e-22  -1.9173730212036671e-22  -1.4971629875347348e-22  5.6790813165974427e-22  8.6737744526896864e-22  2.9791028234001091e-22  -1.4302150884200538e-22  -2.2204476554820053e-22  2.9231011486024413e-23  6.8289233991849680e-23  -2.0224488713417152e-23  1.4526080725297036e-23  -4.8083407764267317e-24  -8.5569985290242884e-23  -5.9147579605863452e-23  -1.2702688662335926e-22  -1.6552240593171285e-22  -6.6684484074876186e-23  -4.1623033531240174e-23  9.6797561320154635e-25  4.8109139432275027e-22  8.2269814473826385e-23  -5.3177155283810383e-22  -2.7715817495274830e-22  1.3566297394639078e-22  6.2314923999994797e-23  -3.9295407125704322e-23  -1.5923099280829944e-22  -7.2460638550955784e-24  2.2913539129604099e-23  -6.5336582433768373e-23  -9.4240980666342951e-23  -3.0924992890454936e-23  3.1018053268754295e-24  -1.9922441281169302e-04  -2.2174669670790224e-04  -2.3983011012516825e-04  -2.5381888669615574e-04  -2.5522234261767109e-04  -2.5936314448351616e-04  -2.6094053143569973e-04  -2.6059249670741167e-04  -2.6065649632734539e-04  -2.5924866878174278e-04  -2.5609680319059686e-04  -2.5087624145042549e-04  -2.3863601288499567e-04  -2.2044729197717863e-04  -1.9802910043686682e-04  -1.3714339704569032e-04  -1.0820391512186532e-04  -7.1476823356488598e-05  -2.6610572288156315e-05  2.9370782565371071e-05  7.8201518033947816e-05  1.1766792689475689e-04  1.4804805967110699e-04  1.6750100047324359e-04  1.7411964530959041e-04  1.6767189072501137e-04  1.4880660851276418e-04  1.1814274547564116e-04  7.8928605379909397e-05  3.0106422120280393e-05  -2.5928017210391410e-05  -7.1893796295142981e-05  -1.0746040276857034e-04  -1.3635904607235084e-04  -1.9735472388150580e-04  -2.2006061538662038e-04  -2.3837193055376038e-04  -2.5196055701743659e-04  -2.5647018416345127e-04  -2.5928769864320121e-04  -2.6051618109561845e-04  -2.6052542757531565e-04  -2.6007942791004786e-04  -2.5886132579051424e-04  -2.5568157405398632e-04  -2.5229093227630402e-04  -2.3878580816882105e-04  -2.2074989002387612e-04  -1.9822901742288374e-04  -1.3790253996979806e-04  -1.0935012496071710e-04  -7.5798058326431868e-05  -2.8233929874030652e-05  2.6347681052857139e-05  7.7071696455683741e-05  1.1665273901999764e-04  1.4742960100270241e-04  1.6673207876650780e-04  1.7305215478219355e-04  1.6639132546489871e-04  1.4708776457081335e-04  1.1672743771780282e-04  7.7018897555418376e-05  2.7855305578232088e-05  -2.7914785230395392e-05  -7.2636325415381247e-05  -1.0944365089612641e-04  -1.3823379169835832e-04  -4.0097064825392374e-05  -2.5604059067732120e-04  -4.1224148553214370e-05  -2.5614575350777950e-04  -2.6237277108620999e-04  7.6647516669731812e-06  -3.6736836896276775e-05  -2.5972974988957615e-04  -2.5397812428225238e-04  8.9849908950634161e-05  8.8313531937284212e-05  8.5705247386761921e-05  1.1291081036259799e-04  -2.5353899033080606e-04  -2.6055746012443515e-04  1.2502007204011258e-04  -2.5507671069977363e-04  -2.5266109336302315e-04  1.2643523240174397e-04  -1.0206817665368929e-04  -1.5888682217497208e-04  -1.6042358969694601e-04  -1.5764763842793816e-04  -2.4351414841135500e-04  -2.2320228167563310e-04  -2.2456951878426041e-04  -1.9278539668822156e-04  -2.2213964473174317e-04  -1.0223646592921324e-04  -8.7279877876069313e-05  -4.0025417949098599e-05  -8.8181518255016147e-05  -3.9548425224521530e-05  -9.0667846520804129e-05  -3.9483422537527233e-05  -9.2112398841619469e-05  -1.4624484813303368e-04  -4.2714662409326235e-05  -9.0496743557681689e-05  -1.4884836874110604e-04  -1.3333108561382128e-04  -1.8638699535784197e-04  -1.6799214157376885e-04  -1.1038184301023727e-04  -1.2891678272905401e-04  -7.4464746803906527e-05  -8.3625349728354525e-05  -2.4529772256270137e-05  -1.4581537001403329e-04  -3.6277137882448194e-05  2.2351520881580793e-06  -4.5416537477091062e-07  3.8591125692461122e-05  1.3590840788754197e-05  3.7496578363011192e-05  -1.4351687192701507e-06  9.7176495504175156e-06  -3.8726754101370732e-05  -3.8394942858683447e-05  -9.7061461785044487e-05  -9.2213824471097113e-05  -1.4592831820021266e-04  -1.2884976252919907e-04  -1.5958308076581150e-04  -1.9475063669637554e-04  1.5962599663798615e-05  7.1556811387023003e-05  -2.0156818874797464e-04  -2.2378688301330875e-04  2.9793598326335574e-05  1.9907038770982163e-05  5.8138504499467572e-06  2.6681296758129786e-05  8.4957559997861782e-05  7.3885124644702452e-05  7.2300235041866418e-05  3.4767706115007158e-05  8.1531167513999487e-05  3.4004759415985624e-05  -2.6972194555418306e-06  -1.2716374960376685e-05  3.7796508531268240e-06  -4.7916788338541223e-05  -7.5111782159557343e-05  -1.0985333856989060e-04  -9.7878737085359423e-05  -1.5457748055708458e-04  -1.5881978090436405e-04  -1.4319627845747404e-04  -1.9016449718658920e-04  -1.6941722428159795e-04  -1.2625366006062850e-04  -8.2947595234700698e-05  -2.0639928260859379e-04  -1.6812849028106019e-04  -2.2669231641276352e-04  -2.2123347187954245e-04  -2.0228057263857997e-04  -1.6769208018836725e-04  -1.2375009018624657e-04  6.9179171925721418e-05  1.0343104500135550e-04  -2.4009482244243829e-04  7.8344070990663130e-05  -1.8924220058175905e-04  -1.9525858371893549e-04  -1.6679413902219903e-04  -2.0744388400140211e-04  -2.2495041428451708e-04  -2.0386734935621197e-04  -1.7046650815823991e-04  -1.2911884212948502e-04  -2.3508821469841448e-04  -2.1390677732129325e-04  -2.4732378590493296e-04  -1.8118211758146269e-04  -4.2493122139645973e-05  -2.2700745716247114e-04  -6.2816194095654157e-05  -1.8293617077982165e-04  -2.2155823307632106e-04  -1.9084544610145304e-04  -2.2102797949974604e-04  -2.4093425848034227e-04  -2.4091165359779788e-04  -2.2065844755257688e-04  -8.7439644329813301e-05  -3.8643528560850642e-05  -2.3566864557254060e-04  -1.0641245698818693e-04  -1.6224701505555838e-04  -2.1475329533620754e-04  -1.0196333345063176e-04  -7.3777429455877552e-05  -8.7264780797715122e-05  -3.5752935266721842e-05  2.5514279105239456e-05  -3.5775881839868619e-05  -1.9451886974062468e-04  -1.6706690237042456e-04  -2.2444337187072435e-04  -1.4025119355414738e-04  -2.0236141114931874e-04  -9.7558790496873489e-05  -2.4094955856936401e-04  -2.4916921702229753e-04  1.1278434496547331e-04  -1.4066047821621885e-04  -1.9327935828375935e-04  -2.4331589535067920e-04  4.9816813496802695e-05  4.6919652618787302e-05  3.6534478533687239e-06  -2.5404406498920383e-04  6.4017723271894740e-06  5.1060465206768279e-05  -9.7592302578220072e-05  5.1045676268867508e-05  1.1299940739431812e-04  8.8965245173519669e-06  -2.4592247616067874e-04  -2.1628801064767865e-04  1.2694453026370614e-04  -2.5916466000312885e-04  -2.3039816409221845e-04  5.1249135020697317e-05  1.1539926356424399e-05  8.7572074610903428e-05  -3.9687712604714177e-05  -1.5925303276883681e-04  -2.0115362300268831e-04  -2.1984506858384876e-04  1.0086872530323659e-04  -1.3515773574811180e-04  9.4056036537603864e-06  -8.4031486691808744e-05  -1.9160533847366562e-04  -1.9130866724153463e-04  -2.2327174143507659e-04  -1.9095646301851314e-04  -2.5451874158019538e-04  -2.8651536317741659e-05  -2.6819040270960769e-05  -2.3870689344640902e-04  -2.6030567357351674e-04  -2.6324854587507273e-04  -2.2175811786042700e-04  -2.4330252645044550e-04  1.1558931282768062e-04  -8.2786536382367467e-05  1.0194521496550567e-04  -1.9400205477074437e-04  1.2850836689239729e-04  -2.1926004341594365e-04  -8.1733510755477922e-05  -4.7869947306107227e-05  -1.2828181408936702e-04  -1.2656601153612762e-04  -8.2015687127768130e-05  1.0149384169418256e-04  4.7550622669994910e-06  7.8359193379758468e-05  -2.5747545560627098e-04  -2.5521578412436108e-04  -4.8966613349689721e-05  -2.1709643957152047e-04  8.4141636999042292e-05  4.1284542557469892e-06  -3.2609722316761876e-06  -2.2643410406530763e-04  4.4578679342120710e-05  -1.4775514562048405e-04  -2.6015271611441650e-04  -3.4197815125668940e-05  -1.3488392988916486e-04  -2.0385297670458703e-04  4.3907467377334336e-05  8.4222289523181885e-05  5.3335182156067225e-05  -3.1608683781143596e-06  -2.5816322254255844e-04  -3.6728481764537705e-05  1.1064144073609600e-04  -5.0189073951474437e-05  -2.3297077335471101e-04  -8.4455587604597999e-05  -2.5085050703257434e-05  -1.9496775830207650e-04  1.0166912640413021e-04  -4.9694804778357327e-05  8.2222060556775184e-05  -2.3364508941705020e-04  -3.3494107775780665e-05  -3.4722660862979985e-05  6.9066140010251405e-05  6.2649052098868733e-05  -2.6235012888093669e-04  4.6234990842674176e-05  -2.0213755046311914e-04  -2.0161183768068651e-04  -2.0336110944476607e-04  -2.0278454936206066e-04  -2.0614074825324642e-04  -1.2598524270633353e-04  -2.3950111339583668e-04  -2.3410728008402585e-04  6.1391102814125115e-05  -1.0602218702757611e-06  -1.8659237158204250e-04  -2.0162718290009233e-04  -1.2719865576215559e-04  3.9669797600253641e-05  5.3543211277350079e-05  5.5666950809993922e-05  -2.3333411094054906e-04  4.0870542066146622e-05  -2.1046932789522342e-04  -1.6511280603357674e-04  -2.9294010093472642e-05  -2.1500468962788564e-04  4.0685295832171381e-06  -6.8461828371279681e-06  1.1214544812817971e-04  -1.9516468467720315e-04  3.0691067486831873e-05  -7.1187445402818029e-05  -2.1918421812598698e-04  1.5906816587042368e-04  1.5692565987799787e-04  6.0821074761925010e-05  -6.6974795898459307e-05  5.3960163934954003e-05  -6.7598588904616423e-05  1.5963033240613039e-04  5.7345908114274094e-05  1.5949827110700056e-04  5.5585033437727770e-05  -6.4900815289311179e-05  -6.6763805145580074e-05  -9.3642157573797752e-06  -9.7236798490015745e-06  -1.0279526274735824e-05  -9.6208690503726545e-06  -2.5815706622862384e-04  -2.2647735338873122e-04  -2.2506795805790286e-04  -2.5807384847384218e-04  -1.8389371738905460e-04  -1.5876384662050666e-04  -2.5344912547286413e-04  -2.5451301774830607e-04  -2.0778216767827353e-04  -1.7301349867774590e-04  -1.4997575528054497e-04  -1.3472854551970680e-04  -1.2683495498421206e-04  -1.1136422335143433e-04  3.3052104886412484e-05  3.2105160796798780e-05  3.3391779590470534e-05  3.2483254238073411e-05  -3.1550462250403497e-05  -2.8782452887133902e-05  -3.2366331815963400e-05  -1.0251248508284227e-04  -8.4892563737678825e-05  -1.5723430721743838e-04  -1.7914235119154614e-04  -6.7728098169297614e-05  -5.0561173925198915e-05  -4.6510415701343947e-05  -5.9954310561617671e-05  -6.9689715514949552e-05  -6.4832281478731632e-05  -6.5595742150917772e-05  1.0244143446974878e-05  -1.5334910346030293e-04  -1.7475699759656512e-04  1.0693906400132737e-05  1.0508497694166875e-05  1.1704911377868640e-05  -1.2528572690896202e-04  -1.4438297130722869e-04  -1.1764720415845420e-04  -1.2920375464895608e-04  -1.0423237287666997e-04  -1.1261294676315716e-04  -1.3604251758414057e-04  -8.7874980646741239e-05  -7.5793785909936248e-05  -9.3430058936904936e-05  -1.2627493775043544e-04  -1.4514049912505976e-04  -1.1837834235882591e-04  -1.3055471690976014e-04  -1.5309261091745708e-04  -1.0491659599821954e-04  -1.1402682493688473e-04  -8.8392586620880564e-05  -7.5358189948516110e-05  -9.3028539595072025e-05  -2.3861235137509628e-04  -1.8356043217078989e-04  -1.5796416224654603e-04  -1.7242171492894224e-04  -1.4928455841277087e-04  -1.3377656812568734e-04  -1.2604632146051049e-04  -1.1006066022839829e-04  -1.0240198407287344e-04  -8.3634323575057203e-05  -2.5912486971899377e-04  -2.5982145701253218e-04  -2.4848907512224275e-04  -2.4751339585882959e-04  -1.3582180752884896e-04  -6.1362098535521091e-05  -4.2524474062355413e-05  -7.7729410746378263e-05  -6.1909397634418630e-05  -4.3664563736609173e-05  -2.3656481467298022e-05  -5.6932510113318160e-05  -5.8798464047131377e-05  -7.7309785190604689e-05  -5.6920353701619023e-05  -5.3657746957575320e-05  -1.1456120075934901e-04  -2.3950981509347980e-04  -3.5046853685674129e-05  -3.5519338539331310e-05  -1.4733960890303404e-05  -1.3243104917755698e-05  -1.6163272859852372e-05  -5.4761127114984066e-05  -5.1840175935665794e-05  -1.4028921705121244e-04  -1.6121950528359390e-04  -3.0959794843643723e-05  -2.0938343578581274e-05  -3.0869477366414415e-05  -1.9788073414865181e-05  -1.3186913664312106e-05  -1.4022006093432930e-05  1.4627159120541966e-05  2.0843488881335317e-05  4.6255290387487734e-05  6.5009860079058443e-05  -1.2156121161515730e-05  -9.7241504733129196e-06  1.6624378372634276e-05  2.8811203255600596e-05  4.8113577947087545e-05  6.7483003280937158e-05  7.7756437724095000e-05  1.0214173948994828e-04  1.0150580402078387e-04  1.2656727410104108e-04  1.1588474441198718e-04  1.3735810326849569e-04  1.1834398147377713e-04  1.3258457522020064e-04  7.6518004242678272e-05  1.0040329876061353e-04  1.0061607044689670e-04  1.2528772108968001e-04  1.1498985975972962e-04  1.3629639646862261e-04  1.1710921929245891e-04  1.3140033512666619e-04  -5.2878885279067939e-05  -6.6973742074309401e-05  -1.1316594407681898e-04  -1.1074989590189138e-04  -5.3154973420139958e-05  -6.6032123772075767e-05  1.0948982950571326e-04  1.1289581083809660e-04  8.9041835829696948e-05  8.3342378944435038e-05  6.2156498657449187e-05  1.0824284356112691e-04  1.1187614208792596e-04  8.8070304631955406e-05  8.2815977519544800e-05  6.2966095490154175e-05  -1.1560075379675407e-04  -8.9559613090636718e-05  -1.0727461107256865e-04  1.0215290627078739e-04  6.4406273554193830e-05  1.0284334424762661e-04  6.5344575978986758e-05  1.5034602097292006e-04  -1.1576602550845337e-05  1.5006361060225312e-04  -1.2069928423963317e-05  1.2297023992549706e-04  9.6183236213655377e-05  1.2456919637252644e-04  1.9575977153390258e-06  -1.3130682545241293e-05  -4.4341440653505914e-05  9.5654387680139296e-05  -2.2482673018102383e-06  -1.3389321920533448e-05  4.2398602817717845e-05  -4.3518391626582244e-05  4.4939992200435098e-05  -1.1939208198874874e-04  -1.0152862182294449e-04  -1.3298602802339584e-04  -1.8249144836993464e-04  -5.1419221791710720e-05  -7.4507718865754463e-05  -3.0461912364395431e-05  -4.3072904192479818e-05  -7.1844576846228934e-06  -2.0065781872545630e-04  -4.8157025498425806e-05  5.3197785195858263e-05  -1.4681920277543722e-04  -1.9058873157535647e-04  5.4063503442683721e-05  -9.7100287747866633e-05  -9.7318234885384450e-05  -1.9419851200927100e-04  -1.7762270992599088e-04  -1.9590365963298261e-04  -1.7224160407849605e-04  -1.8928122230959339e-04  -1.5688729402664397e-04  -1.7238985891032658e-04  -1.4508189155351068e-04  -2.0980842812495895e-04  -1.8538228322287540e-04  -2.1967366540165382e-04  -1.9395651935621644e-04  -2.2621768531575092e-04  -2.0006980607125278e-04  -2.3118437686824801e-04  -7.7852674396371388e-05  -6.4081153411634198e-05  -5.0456733745126757e-05  -7.2326939664007153e-05  -2.1593598288371078e-04  -2.2389121916491206e-04  -3.1229937332712690e-05  -2.0939700892008283e-04  -3.1445042406110132e-05  -3.2417997969387580e-05  -1.6240464637332428e-04  -5.2275314461723241e-06  -8.1196826482190547e-06  -8.7113605999119183e-06  -1.7073221443116078e-04  -1.8583219957826988e-04  -1.3950725941078477e-04  -1.1949305155607208e-04  -1.5888723382227293e-04  -5.0329134457860622e-05  -4.1550611969882864e-05  -5.2022622992583835e-05  -1.2395014230615542e-04  -1.6054145144062926e-04  -1.8707331804782668e-04  -1.9751794393278925e-04  -1.5890333186371113e-04  -1.9398922511338316e-04  -2.2248585644756599e-04  -2.2436978332218620e-04  -1.8708791790242725e-04  -2.1419379959242753e-04  -1.7329155820632020e-04  -2.0247301077804645e-04  -2.3438965976553869e-04  -2.2632200416396788e-04  -1.8738723972700221e-04  -2.1514607537420017e-04  -1.6961062678747573e-04  -1.9290850401743449e-04  -2.2449147473911846e-04  -2.0588209611765803e-04  -1.7072301308701461e-04  -1.8768787727976499e-04  -1.4605995775690827e-04  -1.5820966140639794e-04  -1.1846211064468663e-04  -1.2442071075351177e-04  7.8247439165161456e-05  3.3330019591539302e-05  1.1641882675752991e-04  4.1490624702373661e-07  -2.3709474144287034e-05  -1.4368347065974539e-04  -8.9068348798024177e-05  7.9136999261935576e-05  1.1735935118127468e-04  -6.1872658676520356e-05  -2.4232695387689949e-04  2.5502599358252273e-05  -1.5488636275518464e-04  1.0235078783388441e-04  -2.3364530909722716e-04  -1.8787079827764169e-04  -8.7853925050956937e-05  -9.5900593886409614e-05  -2.4604635619671149e-04  6.3425782668411604e-05  4.2525791629969784e-05  1.0345453924813009e-04  -2.2606213188255505e-04  -7.2782510845556729e-05  -2.3783350087957809e-04  -2.4373879160576541e-04  -2.2857631588152973e-04  -2.1037562534863556e-04  6.2638781308034