<?xml version="1.0"?>
<VTKFile type="UnstructuredGrid"  version="0.1"  >
<UnstructuredGrid>
<Piece  NumberOfPoints="1297" NumberOfCells="2496">
<Points>
<DataArray  type="Float64"  NumberOfComponents="3"  format="ascii">0 0 0  0 1 0  1 1 0  1 0 0  1.1 -0.1 0  -0.1 -0.1 0  1.1 1.1 0  -0.1 1.1 0  0.2898321979500428 0.6795182388431896 0  0.289856328773569 0.3196950173950724 0  0.7103346447853582 0.3200752791142067 0  0.7103558310536792 0.6794000332299214 0  0.4999470677812953 0.4996653816495698 0  0 0.9499999999997918 0  0 0.8999999999995836 0  0 0.8499999999996529 0  0 0.7999999999999998 0  0 0.7500000000003466 0  0 0.7000000000006934 0  0 0.6500000000010401 0  0 0.6000000000013869 0  0 0.5500000000017335 0  0 0.5000000000020587 0  0 0.4500000000018723 0  0 0.4000000000016644 0  0 0.3500000000014564 0  0 0.3000000000012483 0  0 0.2500000000010403 0  0 0.2000000000008322 0  0 0.1500000000006241 0  0 0.100000000000416 0  0 0.05000000000020799 0  0.04999999999989965 0 0  0.09999999999981467 0 0  0.1499999999997036 0 0  0.1999999999995579 0 0  0.2499999999994121 0 0  0.2999999999992664 0 0  0.3499999999991206 0 0  0.3999999999989749 0 0  0.4499999999988292 0 0  0.4999999999986943 0 0  0.5499999999988151 0 0  0.5999999999989468 0 0  0.6499999999990784 0 0  0.69999999999921 0 0  0.7499999999993417 0 0  0.7999999999994734 0 0  0.8499999999996051 0 0  0.8999999999997368 0 0  0.9499999999998684 0 0  1 0.04999999999989965 0  1 0.09999999999981467 0  1 0.1499999999997036 0  1 0.1999999999995579 0  1 0.2499999999994121 0  1 0.2999999999992664 0  1 0.3499999999991206 0  1 0.3999999999989749 0  1 0.4499999999988292 0  1 0.4999999999986943 0  1 0.5499999999988151 0  1 0.5999999999989468 0  1 0.6499999999990784 0  1 0.69999999999921 0  1 0.7499999999993417 0  1 0.7999999999994734 0  1 0.8499999999996051 0  1 0.8999999999997368 0  1 0.9499999999998684 0  0.9499999999997918 1 0  0.8999999999995836 1 0  0.8499999999996529 1 0  0.7999999999999998 1 0  0.7500000000003466 1 0  0.7000000000006934 1 0  0.6500000000010401 1 0  0.6000000000013869 1 0  0.5500000000017335 1 0  0.5000000000020587 1 0  0.4500000000018723 1 0  0.4000000000016644 1 0  0.3500000000014564 1 0  0.3000000000012483 1 0  0.2500000000010403 1 0  0.2000000000008322 1 0  0.1500000000006241 1 0  0.100000000000416 1 0  0.05000000000020799 1 0  -0.1 1.05000000000004 0  -0.1 1.000000000000079 0  -0.1 0.9500000000001624 0  -0.1 0.9000000000003032 0  -0.1 0.850000000000444 0  -0.1 0.8000000000005848 0  -0.1 0.7500000000007256 0  -0.1 0.7000000000008665 0  -0.1 0.6500000000010508 0  -0.1 0.6000000000012352 0  -0.1 0.5500000000014196 0  -0.1 0.500000000001539 0  -0.1 0.4500000000014195 0  -0.1 0.4000000000013 0  -0.1 0.3500000000011588 0  -0.1 0.3000000000010178 0  -0.1 0.2500000000008986 0  -0.1 0.2000000000007579 0  -0.1 0.1500000000006174 0  -0.1 0.1000000000005272 0  -0.1 0.05000000000040083 0  -0.1 2.671196597248127e-13 0  -0.1 -0.0499999999998666 0  -0.0500000000000906 -0.1 0  -1.730560139634463e-13 -0.1 0  0.04999999999975802 -0.1 0  0.09999999999961506 -0.1 0  0.1499999999994613 -0.1 0  0.199999999999302 -0.1 0  0.2499999999991446 -0.1 0  0.2999999999990088 -0.1 0  0.3499999999988296 -0.1 0  0.3999999999986936 -0.1 0  0.4499999999985143 -0.1 0  0.4999999999984002 -0.1 0  0.5499999999985247 -0.1 0  0.5999999999986493 -0.1 0  0.6499999999987955 -0.1 0  0.6999999999989417 -0.1 0  0.7499999999990659 -0.1 0  0.7999999999992116 -0.1 0  0.8499999999993573 -0.1 0  0.8999999999994526 -0.1 0  0.949999999999584 -0.1 0  0.9999999999997226 -0.1 0  1.049999999999861 -0.1 0  1.1 -0.0500000000000906 0  1.1 -1.730560139634463e-13 0  1.1 0.04999999999975802 0  1.1 0.09999999999961506 0  1.1 0.1499999999994613 0  1.1 0.199999999999302 0  1.1 0.2499999999991446 0  1.1 0.2999999999990088 0  1.1 0.3499999999988296 0  1.1 0.3999999999986936 0  1.1 0.4499999999985143 0  1.1 0.4999999999984002 0  1.1 0.5499999999985247 0  1.1 0.5999999999986493 0  1.1 0.6499999999987955 0  1.1 0.6999999999989417 0  1.1 0.7499999999990659 0  1.1 0.7999999999992116 0  1.1 0.8499999999993573 0  1.1 0.8999999999994526 0  1.1 0.949999999999584 0  1.1 0.9999999999997226 0  1.1 1.049999999999861 0  1.05000000000004 1.1 0  1.000000000000079 1.1 0  0.9500000000001624 1.1 0  0.9000000000003032 1.1 0  0.850000000000444 1.1 0  0.8000000000005848 1.1 0  0.7500000000007256 1.1 0  0.7000000000008665 1.1 0  0.6500000000010508 1.1 0  0.6000000000012352 1.1 0  0.5500000000014196 1.1 0  0.500000000001539 1.1 0  0.4500000000014195 1.1 0  0.4000000000013 1.1 0  0.3500000000011588 1.1 0  0.3000000000010178 1.1 0  0.2500000000008986 1.1 0  0.2000000000007579 1.1 0  0.1500000000006174 1.1 0  0.1000000000005272 1.1 0  0.05000000000040083 1.1 0  2.671196597248127e-13 1.1 0  -0.0499999999998666 1.1 0  0.280372999172269 0.6637501851976453 0  0.2769871067056149 0.6425535266094961 0  0.2750827649990362 0.619850657877107 0  0.2738082899858593 0.5962980328096391 0  0.2730022821937103 0.5723556987848715 0  0.27243037399326 0.5482167401256975 0  0.2721044996183193 0.5239465244987616 0  0.2720141018764942 0.4996439582266761 0  0.2721392275958593 0.4753248493043755 0  0.2724623305301433 0.4510292913734772 0  0.2730259549474734 0.4268660349840955 0  0.2738629527342839 0.4029165061535545 0  0.2751357495155204 0.3793645819087508 0  0.2770592670779886 0.3565948768265683 0  0.2804135689597214 0.3354078702562109 0  0.3048716166072282 0.3067565484798727 0  0.3247633600014481 0.2996916572046284 0  0.3462600902537576 0.2941903401896288 0  0.3683446897442159 0.2895658046345718 0  0.3905041519693809 0.2857595672588057 0  0.4125749094908758 0.2824955722438925 0  0.4345080057615057 0.2797903881595243 0  0.4563937305439788 0.2777692960772825 0  0.4782423478575402 0.2765591137527597 0  0.5000718849773449 0.2761776189188929 0  0.5218952407050348 0.2766346775112913 0  0.5437472535598945 0.2778867881967231 0  0.5656685609162274 0.2798659243449768 0  0.5876156905105725 0.2826679428476907 0  0.6097741691933084 0.2859733632880634 0  0.6319870952615244 0.2898501001136293 0  0.6540142363238499 0.2944971790573386 0  0.6754312780105771 0.2999865785826291 0  0.6952269510038099 0.3070869634017976 0  0.7195680988761232 0.3359975449487603 0  0.722915422116702 0.3569835828485899 0  0.7247757329821951 0.3796749060131339 0  0.7259887135416446 0.4031864071139248 0  0.7267838390270227 0.4270994972795145 0  0.7273151126462929 0.4512143526822101 0  0.7276101509233702 0.4754432109537602 0  0.7276858136974799 0.4997227510988355 0  0.7275631485755025 0.5240076041666177 0  0.7272728852923838 0.5482267839659349 0  0.7267807415201641 0.5723423836336945 0  0.7260334346716323 0.5962516730532484 0  0.7248084673860954 0.6197675326788852 0  0.7229441561990326 0.6424805780998514 0  0.7196102604987227 0.6634867945954029 0  0.6952671554053477 0.6923138871012749 0  0.6754856087584344 0.6993718750226143 0  0.6540852134685071 0.7048898563266247 0  0.6320312236422888 0.7095146175371057 0  0.6097850510153774 0.7134206633774641 0  0.5875762387978928 0.7167031556553953 0  0.5656148829361609 0.7195034255693232 0  0.5436860944695123 0.7214857207678289 0  0.5218334287075899 0.7227108491370687 0  0.500029392815778 0.7231369117118143 0  0.4782135963500387 0.7227386140241582 0  0.4563634270133312 0.7215071896440819 0  0.4344799534619039 0.7194759495026998 0  0.4124937068981672 0.7167792281975526 0  0.3903518774950871 0.7135261803479095 0  0.3681866349499596 0.7096910992641001 0  0.3461303741407994 0.7050706206093442 0  0.3246566339293957 0.6995671351219657 0  0.3047915026467007 0.6924525347149357 0  0.3798978898063026 0.3113363573724279 0  0.293534930542787 0.4384321552717693 0  0.3797893041327248 0.6879280207019329 0  0.2935097820241283 0.5608340803540639 0  0.7070612297261636 0.5844873586994304 0  0.5983113728843712 0.6922343718257927 0  0.6193676066246326 0.3109784149953745 0  0.7077209346000785 0.4378741685133979 0  0.7074512138167435 0.5113286913432294 0  0.5539057804339215 0.3015662585633819 0  0.4464777785885038 0.3035288284851785 0  0.4451619551202297 0.6961281776472448 0  0.5326499793146197 0.6981400889040277 0  0.2928220876892577 0.4873635545975504 0  0.2936932074972878 0.390188404630703 0  0.4893461246593186 0.3035844166922853 0  0.2992518420627062 0.6073892497781098 0  0.7007442282731392 0.388296832603341 0  0.4891406495449012 0.698838184952381 0  0.6423165531944677 0.6843281357935732 0  0.3359476721921514 0.3219653651183672 0  0.6644254772354756 0.32370116539927 0  0.3364112813581259 0.6796579368975139 0  0.7021933837848042 0.6338335588024719 0  0.2990710627674658 0.3441833507640124 0  0.3014485104268932 0.6537591883940801 0  0.6848791771891446 0.6741491510805789 0  0.7016717046957932 0.3440562251870514 0  0.3579368967983279 0.684112907493334 0  0.3692855238810853 0.6631018666397646 0  0.3909458512898221 0.6659123883897844 0  0.3797065809161407 0.6410841114646886 0  0.4022236765877917 0.6432599001016007 0  0.3898976770916568 0.6158691286929311 0  0.4166827646195752 0.6177477063454456 0  0.4017049316071069 0.5851698385135672 0  0.3634332216221978 0.6129930635618479 0  0.4341197949798429 0.5861066307331488 0  0.41546413241987 0.5490034528973851 0  0.3775638253203062 0.5541679550215557 0  0.3938928996672938 0.5142366798887055 0  0.3581433238366001 0.5163057566854523 0  0.3705762556012877 0.4809650934640255 0  0.408130446225367 0.4754415390649798 0  0.3879376899140192 0.4420490517296094 0  0.422171136900322 0.4362192962631883 0  0.4027479047924051 0.4046794746359023 0  0.4341557621208618 0.392149468368317 0  0.3700287725246794 0.4067833887780529 0  0.4109550552334468 0.3708629359206305 0  0.4426052362667801 0.6205678851470863 0  0.4670764465624074 0.5946168778916824 0  0.4844805143275138 0.6216820097383322 0  0.5019978258171423 0.5964089099501733 0  0.5187219941740532 0.621863098710672 0  0.5360910345653318 0.5967091012722872 0  0.5525941775206391 0.6221907833981666 0  0.5698214434011331 0.5973093599097598 0  0.5870112832122606 0.6251186966186076 0  0.6032423123791151 0.5908407549387331 0  0.58769
[...]
<PointData  Scalars="v"> 
<DataArray  type="Float64"  Name="v"  format="ascii">-1.5036462157338534e-21  1.7549693362148874e-21  1.9004862484758807e-21  -9.9820564337946012e-22  8.9413232901311232e-23  1.0255426607820108e-22  -1.0807522130130468e-22  -1.0929671206441798e-22  7.3295835634426044e-04  7.2138357453265705e-04  7.2736821224126790e-04  7.3744875352298113e-04  1.1641268720672545e-03  -3.8172663991684196e-21  1.7437457925931001e-21  0.0000000000000000e+00  -6.4012572045961337e-20  4.1887667922884998e-20  3.0409262985900684e-20  -3.7546646026697084e-20  -1.4432109811205316e-21  -2.6660760950174684e-20  4.2947700031523086e-20  7.8326368938449478e-20  -2.6775272575375600e-20  7.1457621500216597e-21  1.1379128993031973e-20  -1.5111869471497685e-20  -8.1333929740461287e-21  -9.0322283025320398e-21  -5.6125323172906400e-21  6.6378803797816358e-21  -8.9032209743878499e-22  -3.3551742434351753e-21  -5.8154496259598018e-21  -1.0943678437309898e-20  -2.8879673514470267e-21  -2.2553915950362337e-20  2.4011267888371059e-20  0.0000000000000000e+00  4.4021170871825908e-21  8.2098443909476830e-21  0.0000000000000000e+00  -9.3741601655667694e-21  1.2761551864487601e-20  -9.0021493971497208e-21  9.1037401144233453e-21  2.9141434550909657e-20  -2.6433349103277403e-21  -1.6187688079531359e-21  1.4046778905816026e-21  9.9571603432203448e-21  1.3979574782895037e-20  5.0991338929000167e-21  5.5031056012103394e-21  2.0170940402013425e-21  3.2401358185775896e-20  -2.5640635210681477e-20  -3.1429066040310314e-20  -1.8249600716908051e-20  -1.0893691311235252e-20  -1.6151846880755941e-20  1.1489942611709038e-20  4.2891095744984109e-21  -3.6894687634569988e-20  -4.8425435402653718e-22  8.2957261494971198e-21  7.9419260750608613e-21  -8.5644729511602599e-21  -6.5962662225306404e-21  0.0000000000000000e+00  7.1620142893072898e-22  1.6675489214135689e-20  1.3751076655535512e-20  6.8018140397679603e-21  -1.4721657066854709e-20  -1.6762448911418688e-21  -2.0151943774537460e-22  2.2948565741082772e-20  -4.8729845255080499e-20  -4.7449030686313060e-20  6.1956529522562099e-21  -3.2294923654257265e-20  -2.2239482054818439e-20  1.0720878750770533e-20  2.8619042113846628e-21  -2.8941844395939040e-21  1.2021426651077596e-20  1.5087980051982612e-22  9.2430867845587034e-23  1.3468403344716440e-22  -6.1700728966509085e-22  5.9856453392449743e-22  -2.1100994608824918e-21  -6.1486807505704519e-21  3.3026169681091708e-21  4.0609017612622677e-21  -3.2731756827131356e-21  -2.9657532528150930e-21  -4.9058087756327746e-22  3.7289265859829926e-21  7.7976106968162942e-21  -3.5243435826938214e-22  -5.2752953760053449e-22  1.3358834450364844e-21  -1.7256108202758442e-21  -1.3631737504367763e-21  -1.6034220220677895e-21  -4.5360390722530174e-22  5.1735889580685228e-22  1.1663143645064215e-22  -1.6642725039141767e-22  -1.7839119245624894e-23  -1.6201719455618648e-22  -2.2212161686323216e-22  -3.5899212029458677e-22  -1.1281546412008555e-21  -8.0258222007670069e-22  -1.5766412368868433e-21  -9.7334227165630920e-22  1.3244938924779943e-21  1.2249457577100023e-21  1.5549926533118085e-22  1.5907312997068199e-21  -3.6072406698610880e-23  -8.3540979816241793e-22  9.8008398948697286e-22  -5.2606687096619880e-22  1.3053500648691352e-21  3.6014731351562586e-21  8.0254972402613132e-22  -5.4204511106455241e-22  1.7925351556917027e-22  -4.9480207330988982e-23  -3.1792106432971071e-23  -1.3930459354632745e-22  6.0878229408630387e-23  1.2845325885488514e-21  2.1908402637323522e-21  1.2506482294874626e-21  1.0519500856409121e-22  1.5194333250534252e-21  3.0892304666673643e-21  -1.5302932060574500e-21  -5.4990875006466953e-21  -2.8743852346798003e-21  -1.8354937372431442e-21  -1.6153247090030819e-21  1.2440920191463566e-21  -2.7253807240009853e-23  -4.1753671625374028e-21  -1.7149456043734615e-21  1.8481509397578002e-21  7.5479091219273166e-22  -1.0052170635956807e-21  -1.0316399132579490e-21  1.5544562554439034e-22  1.1105878767188055e-22  2.8271108129415243e-23  2.4329232273674939e-22  -1.6491659321067901e-22  6.8166475427730375e-22  2.2589092042030275e-21  1.0996798859442005e-21  5.5566912196134239e-22  -1.2449001811121743e-21  -1.4550256717853859e-21  1.9551225189105608e-21  2.5495906761153539e-21  -6.1956685920521689e-21  -6.1334759013568793e-21  -6.2613680282949590e-22  -3.1420614740116206e-21  -2.6406513588473307e-21  1.1686718704553965e-21  6.1426898143463287e-22  5.5585921344988659e-22  9.2650560185686433e-22  5.3656723971815562e-22  -5.4650392632594953e-23  9.9976766076764726e-23  7.3263886755503028e-04  7.5177251184382226e-04  7.7596354511811206e-04  8.0229305655861569e-04  8.2762450607231221e-04  8.4673292152300406e-04  8.5840917847422224e-04  8.6124094450467639e-04  8.5657331505873909e-04  8.4315120394415138e-04  8.2232725640148476e-04  7.9550060296682641e-04  7.6774466113983429e-04  7.4277780683063661e-04  7.2176937153808592e-04  7.3076579541391711e-04  7.5841684773179561e-04  7.8955847092490616e-04  8.2267181121339363e-04  8.5632193247315398e-04  8.8478450578936721e-04  9.0908163497307169e-04  9.2414677212424240e-04  9.3351857968709535e-04  9.3698048535912162e-04  9.3448853397162909e-04  9.2595998564673585e-04  9.1202812319262196e-04  8.8846620793089676e-04  8.6068320067762155e-04  8.2706448338180558e-04  7.9483447841810603e-04  7.6290048974769081e-04  7.3660626924181884e-04  7.3009748947921635e-04  7.4913169338797431e-04  7.7497071716547549e-04  8.0242680573578275e-04  8.2921043527560325e-04  8.5034560272629625e-04  8.6463906644548773e-04  8.6931807485567418e-04  8.6637424727251762e-04  8.5495508567812835e-04  8.3511279981440356e-04  8.0895589770089375e-04  7.8239328482928683e-04  7.5784916634954081e-04  7.3823450468844722e-04  7.4761025938100269e-04  7.7331036209144031e-04  8.0719436853358062e-04  8.4123091576897670e-04  8.7683996871199465e-04  9.0469372906425637e-04  9.2812947095182547e-04  9.4340819165317160e-04  9.5249950215036045e-04  9.5531814560509908e-04  9.5172820130711203e-04  9.4208580598674268e-04  9.2642421855346137e-04  9.0321589803406678e-04  8.7337164825266982e-04  8.3827017776013171e-04  8.0389075681226631e-04  7.7209057358871636e-04  7.4324090282789159e-04  8.9682914997301602e-04  8.9081517014191845e-04  9.1199227037971539e-04  8.9589339352887044e-04  8.8120967629723294e-04  9.4269336338806149e-04  9.0238885662905638e-04  8.9475036422010420e-04  9.2195965968965531e-04  9.6961549527548572e-04  9.7103878223564943e-04  9.8622769381736196e-04  1.0001018294685591e-03  9.1404375241339354e-04  8.3681033726350218e-04  9.9496634251540201e-04  8.6466732743096012e-04  8.5897560246868951e-04  1.0063832904686353e-03  8.7851674310403640e-04  8.2209516767141203e-04  8.2812869178345997e-04  8.2942382315464355e-04  8.1937848865828175e-04  7.6827121599152648e-04  7.8756491748076425e-04  7.8975799450649938e-04  7.7368165808054375e-04  8.7502912228283808e-04  9.2945017552350444e-04  9.6186413582630180e-04  9.7545247186069616e-04  1.0098716678011955e-03  1.0221313712263313e-03  1.0583240389446325e-03  1.0685563488041503e-03  9.8013499572638862e-04  1.1037325180915233e-03  1.1063799551900315e-03  1.0542617421899045e-03  1.0893679790645414e-03  1.0383000420497071e-03  1.0554770259817523e-03  1.1028238629611879e-03  1.0617017645746431e-03  1.0991520126779435e-03  1.0523481666781455e-03  1.0764771320875448e-03  1.0059483979524546e-03  1.0282327394329144e-03  1.0840717527958244e-03  1.1217686494738957e-03  1.1056514702267564e-03  1.1290710947582815e-03  1.1065023705982800e-03  1.1197670163456169e-03  1.0872942604374370e-03  1.0946218889633444e-03  1.0507698316985839e-03  1.0610903991535314e-03  1.1028867828509123e-03  1.0599956344639499e-03  1.0960735063562474e-03  1.0119753329207097e-03  1.0084373068317699e-03  1.0344208942150226e-03  1.0601549154495668e-03  1.0036278001558227e-03  9.8425927559964133e-04  1.0547797003948537e-03  1.0920603862726494e-03  9.9146072161521311e-04  1.0094498179254903e-03  1.0717606212240589e-03  1.0585948693355464e-03  1.0618955048845593e-03  1.1017138369150228e-03  1.0615499963562830e-03  1.0914784641052546e-03  1.1279201970458290e-03  1.1010569765417854e-03  1.0651052008070199e-03  1.0608156370119466e-03  1.1080713596615986e-03  1.0579964833461071e-03  1.0134287991556009e-03  1.0046485220521980e-03  1.0373990581405172e-03  9.6175820081561734e-04  9.4794595107462797e-04  9.1342310532223955e-04  9.2079666391618427e-04  1.1309091856244861e-03  9.5708668761092263e-04  9.5921224012840021e-04  9.5462804457473703e-04  9.8934562752021524e-04  9.1537928085030495e-04  9.1175897189455315e-04  9.4851191709523328e-04  1.0527831275111627e-03  1.0233277151016384e-03  9.4463024897238612e-04  1.0258900448374725e-03  1.0079130366878605e-03  9.5970733238375579e-04  9.4620929197282075e-04  1.0060856480769997e-03  9.6421250235467597e-04  9.1163668073503199e-04  9.0002171378961203e-04  9.3012742519530127e-04  9.4639656828974671e-04  9.5989933297330058e-04  9.3185417015429471e-04  9.9975464593370089e-04  1.1395996630821172e-03  9.1362637348241715e-04  1.1342337474263234e-03  1.0473972067837252e-03  9.9870379795518791e-04  1.0381492930180473e-03  9.9264365074048654e-04  9.5966136656025296e-04  9.4759552022945389e-04  9.6803878021944000e-04  1.0010354952166487e-03  9.8279026925871525e-04  9.6055919086479472e-04  1.1117381929572981e-03  8.8032589205194647e-04  8.6820640319796455e-04  1.0060605967941855e-03  9.7220162830831457e-04  9.6502908209142042e-04  1.0062851105302939e-03  1.0076039811003153e-03  9.5157676607095796e-04  9.5195581886446982e-04  9.2348729423197501e-04  9.1442786495205854e-04  8.8403567615650094e-04  8.4052387772715314e-04  8.6236979756638477e-04  9.5323591825219366e-04  9.1498646319250129e-04  9.9852426645817213e-04  8.9776058287849769e-04  8.4593371761673133e-04  8.0336238143085680e-04  9.6721512233712221e-04  1.0139940239788422e-03  1.0368943321213981e-03  8.6867528182745510e-04  9.4192549179822902e-04  9.6004539562418508e-04  8.7019186881752159e-04  9.5969458406001994e-04  9.8451904339231025e-04  9.2481776275617537e-04  8.1603647301672845e-04  8.8222548638649666e-04  1.0050579845233964e-03  8.7793564020280585e-04  9.2520768875313671e-04  9.6751861018222268e-04  9.8965197876474593e-04  9.8571839059676306e-04  9.1259157672025232e-04  8.3419808453959025e-04  8.5630537156604456e-04  9.1102434734419559e-04  1.0362399428030114e-03  8.9958366153066664e-04  9.2931496737207826e-04  9.1753778831805456e-04  7.7319289836824310e-04  7.8498158687605234e-04  7.8350955706586755e-04  7.7844104231498729e-04  9.0539381549252604e-04  1.1215197947734479e-03  1.1526722674472989e-03  9.6232296266368352e-04  8.7913701447376994e-04  8.6626903608141305e-04  8.6932410934006195e-04  8.0702485909214176e-04  9.8129691463766703e-04  9.3008565274635489e-04  1.0432933949652457e-03  9.8550125092827920e-04  9.8833918555871246e-04  9.9487652170523197e-04  1.1291691597755567e-03  1.1355973347253155e-03  1.0790968394271644e-03  9.4210035398593710e-04  9.1899940710377440e-04  1.0376595368644733e-03  9.7141406577053006e-04  1.0290789336562123e-03  9.0939461349240239e-04  9.1694154680781507e-04  1.1341790358025644e-03  8.7938159026326507e-04  1.0270449276658393e-03  9.7320107159577492e-04  1.0360323334770753e-03  9.0964976091203358e-04  1.0561250801552420e-03  1.0787522279919184e-03  9.0573031545583809e-04  1.1499815064498565e-03  1.0270549723815814e-03  8.3261542136297542e-04  1.0381210901098253e-03  1.0143585748668769e-03  1.0116616942362174e-03  1.1296835388729973e-03  9.0214288728618234e-04  9.4246501361056794e-04  1.0395701914767993e-03  1.1536998639005119e-03  9.2922687088119237e-04  9.5785716286389717e-04  1.1532759885372276e-03  1.0175062834644262e-03  1.0227252936597668e-03  1.1515679639475152e-03  1.0711642896392797e-03  9.2293156039592085e-04  9.5550310249486591e-04  1.0062337827843734e-03  1.0809682266497607e-03  1.0030499736007237e-03  9.0634130547746273e-04  1.0555324204480922e-03  7.4099963425831687e-04  7.4497895802768993e-04  7.5353254951045548e-04  7.5499351445792236e-04  9.1300050653030725e-04  8.8447960095385501e-04  9.3189783006280191e-04  8.8271413192691247e-04  9.9980955186816070e-04  1.0640183538934242e-03  8.8503001088477407e-04  9.0041171510311208e-04  9.6610587298300824e-04  1.0877175098707649e-03  1.0580021962375093e-03  1.0967845868733270e-03  9.2168124055789114e-04  1.0871405173221811e-03  9.4847147770906989e-04  1.0522073817339792e-03  1.1518916707365769e-03  9.5681613198897800e-04  1.0373930538379111e-03  1.0053419908141754e-03  1.0221452796038465e-03  1.0257545601842222e-03  1.0717458199756538e-03  1.1366215680372602e-03  8.5110452405296095e-04  9.0284972282717556e-04  9.0001345325767647e-04  8.4654637393508591e-04  7.6205674178333180e-04  8.4687007007984167e-04  7.6333495356193759e-04  8.8211565095062765e-04  8.3040797869043492e-04  8.8361051099622749e-04  8.3245437025498774e-04  7.5316440713502227e-04  7.4765136137798277e-04  9.6757126543444121e-05  8.0762354367565115e-05  1.0311206396138809e-04  8.7954220427760848e-05  8.0313126824973970e-04  7.3321533802068778e-04  7.3206648176912760e-04  8.0976253602978133e-04  7.0030524629724781e-04  6.7726073039386600e-04  8.0003678297740465e-04  7.8881470729220103e-04  7.0493007789611630e-04  6.4453905795444828e-04  6.0910786150930834e-04  6.3035827527951796e-04  5.6048165083186284e-04  5.7839563956048996e-04  1.4034108738630757e-04  1.3003224305853844e-04  1.3491294121811023e-04  1.3452567637764855e-04  1.2104914450006311e-04  1.1610971513278271e-04  1.2144575963209800e-04  4.9966970379118159e-04  5.2845907481174860e-04  5.7175397212760545e-04  6.0619723334615083e-04  2.0112476786995827e-04  1.6497143128762132e-04  1.5703362420992688e-04  1.8332639488739572e-04  2.0478386316742905e-04  1.9505464248698102e-04  1.9986370537422680e-04  1.1374434355150758e-04  5.1563818115123736e-04  5.5197356722332309e-04  1.2972634724471054e-04  1.1166510087569570e-04  1.2666451246978787e-04  6.9325253746014247e-04  6.6631873477996772e-04  6.4003915967395127e-04  5.9926918307953670e-04  5.7343004571712582e-04  5.2592295021059983e-04  5.6148446097016200e-04  4.9353077586920802e-04  5.3711722632972898e-04  4.3898432261947119e-04  7.0529936358032399e-04  6.7480701871725402e-04  6.5150655416106875e-04  6.0923720428133501e-04  6.2217730249998753e-04  5.8449265555130686e-04  5.3548615846717856e-04  5.0461204824581228e-04  5.4903072421332716e-04  4.4976141689666987e-04  7.4916070213475584e-04  6.9095631632046369e-04  6.6748608336493216e-04  6.3544109879032254e-04  5.9984335262986278e-04  6.2017540884526498e-04  5.5236359387088915e-04  5.6811092866844632e-04  4.9435344087499472e-04  5.0558106782182222e-04  8.2079074655917034e-04  8.0866064763341293e-04  7.7464553389285594e-04  7.7552697570756912e-04  5.2660964206647078e-04  4.6055621214529210e-04  5.0143117416112540e-04  4.2742000012920863e-04  4.5192569753394553e-04  5.0697183668715375e-04  1.0713920591313280e-04  4.3261575356273133e-04  5.2659315097534497e-04  4.3231983238519893e-04  4.4180036616339610e-04  5.2752890547273182e-04  4.8341799250138667e-04  7.6550941272562098e-04  3.9880566524820826e-04  3.9253692105824711e-04  7.3595897624501207e-05  6.8283690259034795e-05  7.1082280062336693e-05  3.5204729183954767e-04  3.7281972448946753e-04  4.4682741245379335e-04  4.8473473291232784e-04  4.2864393691436324e-04  5.1203834913651335e-04  4.3734551535935622e-04  5.2000569016881330e-04  4.3431322029520599e-04  5.3325490180091068e-04  4.6192910381230893e-04  5.7802621385338773e-04  4.8459442008031030e-04  5.9286163647989600e-04  4.2771663241108424e-04  5.2913283843246818e-04  4.5233719563476103e-04  5.5851101663177000e-04  4.7182758834704629e-04  5.7838284809260559e-04  4.8532263070240263e-04  5.9355506124821348e-04  4.9381505301011755e-04  6.0247473714432906e-04  4.9715265589593603e-04  6.0424433195818326e-04  4.9272707708397298e-04  5.9787720094950651e-04  4.9729711874729179e-04  6.0708101618107046e-04  5.0525015154240173e-04  6.1566341778881170e-04  5.0812537749589349e-04  6.1694037927021350e-04  5.0284485463565913e-04  6.1014521481646993e-04  3.4996061828118874e-04  3.4157304322662867e-04  6.3853425263908571e-04  6.5081500464568283e-04  3.5597541111973289e-04  3.4336477152121196e-04  4.8816269257286721e-04  5.8569845709618691e-04  4.7394132088850188e-04  5.6778494208465800e-04  4.5298909236185313e-04  4.9811169484941832e-04  5.9698032062658560e-04  4.8257188730438551e-04  5.7812182317089984e-04  4.6561350183615068e-04  4.7382152620369973e-04  3.8412377323211565e-04  3.9914689612505059e-04  6.8558703106992602e-04  6.6156113648622907e-04  6.7298530407220174e-04  6.5109876980290178e-04  7.2313583912018932e-04  3.2585423259486469e-04  7.0001043893751713e-04  3.1991698951986503e-04  7.1068091038988413e-04  3.8534630943406665e-04  6.9580252378736507e-04  4.0905725937595317e-04  3.2825779799172786e-04  2.6815397048006592e-04  3.9444654223045282e-04  4.1864483228279783e-04  3.2643699299424910e-04  6.7746566922409382e-04  2.6937334973083375e-04  6.6061928912047472e-04  3.6891975355928864e-04  3.3561818151923328e-04  3.9194903013464353e-04  5.2923970910858373e-04  2.5292735407055452e-04  3.1775606645394227e-04  1.7673612318853385e-04  6.0107763350604763e-04  4.9597647642495073e-05  6.4186412966139785e-04  6.0213671074931864e-04  3.7853073317091110e-04  4.1913143091768272e-04  5.4078112106276869e-04  3.6915142546711251e-04  6.7292787152480732e-04  6.8537484278332738e-04  6.6179959154031524e-04  5.9637478830343879e-04  6.2286782640848303e-04  5.4262263627576849e-04  5.6877005036574957e-04  4.7274347244607274e-04  4.9812916021762111e-04  4.6606301035157605e-04  6.1314461466995831e-04  5.2454094322626618e-04  6.3136665928255873e-04  5.4427119729707942e-04  6.4845651611820899e-04  5.6057073752876433e-04  6.6536284587236213e-04  3.0738625472324043e-04  2.9375888393755870e-04  2.5496188009717423e-04  3.1878050047492979e-04  6.3024841770174898e-04  6.4747409527008001e-04  1.8747863501274425e-04  5.9052130472698745e-04  2.6528092216136946e-04  2.6738206435327562e-04  4.5265649715509911e-04  4.4805307312163539e-05  5.3274921715653202e-05  4.6387474990213071e-05  6.6686678480914249e-04  7.0049830760349815e-04  4.9519169345364181e-04  4.0020358897134643e-04  5.0785587619552584e-04  2.1453637578723822e-04  2.0643930221255215e-04  2.2315292075926913e-04  3.8390191700576881e-04  4.7823037096127137e-04  5.7810798066132267e-04  5.7846374625672729e-04  4.5219155973830633e-04  5.4690320942748149e-04  6.4752609474697063e-04  6.3888578242328800e-04  5.1773986059101861e-04  5.9815010781601099e-04  4.7578361899602004e-04  5.5976739367933010e-04  6.6884913494446717e-04  6.3823862832888486e-04  5.1587567085943848e-04  6.0311500389691435e-04  4.6810376090900989e-04  5.4029863889669416e-04  6.4558954803556801e-04  5.9335806213038785e-04  4.8640752407505105e-04  5.5588454921052556e-04  4.3111660295369516e-04  4.9694799352788298e-04  3.7006600172357907e-04  4.1559124370981382e-04  7.6525137579709461e-04  7.2786559365529339e-04  7.7872039610860783e-04  5.8468501124335492e-04  6.6692119384171547e-04  4.0961698548268663e-04  2.9414723358448750e-04  7.5163639444656729e-04  7.6419069157519694e-04  6.6563219132752813e-04  7.1876180974656933e-04  6.2753663566800645e-04  4.3494555000128947e-04  8.2352300938068833e-04  6.9520646077165865e-04  5.9571816695822434e-04  2.9242468173395342e-04  3.4206884313698097e-04  7.2958147265709530e-04  3.5397840162408600e-04  3.3682805418365405e-04  8.0827701835022622e-04  6.8448273884522950e-04  2.7890904445369201e-04  7.1224669004992479e-04  7.2704322671974424e-04  6.9202157227779039e-04  6.2740754370574749e-04  3.6069381130772492e-04  3.5776431171834986e-04  2.5836891928800708e-04  7.4129356499992886e-04  7.1157971731415984e-04  3.7226104958382628e-04  3.2254191631054201e-04  2.9929391320486650e-04  2.1929143495772884e-04  1.6508366495616286e-04  3.7577217144608407e-04  2.6191795803544039e-04  1.7919542419533811e-04  2.2375763919257370e-04  2.9684349121340641e-04  6.6648877761487529e-04  2.4572751318284339e-04  2.2389878633578497e-04  3.0766645380086565e-04  6.7866424203198315e-04  7.1900267