<?xml version="1.0"?>
<VTKFile type="UnstructuredGrid"  version="0.1"  >
<UnstructuredGrid>
<Piece  NumberOfPoints="1277" NumberOfCells="3732">
<Points>
<DataArray  type="Float64"  NumberOfComponents="3"  format="ascii">0 0 0  0 1 0  1 1 0  1 0 0  1.1 -0.1 0  -0.1 -0.1 0  1.1 1.1 0  -0.1 1.1 0  0.508722188652774 0.5037755607533735 0  0.6307700042474308 0.7179256278507823 0  0 0.9499999999997918 0  0 0.8999999999995836 0  0 0.8499999999996529 0  0 0.7999999999999998 0  0 0.7500000000003466 0  0 0.7000000000006934 0  0 0.6500000000010401 0  0 0.6000000000013869 0  0 0.5500000000017335 0  0 0.5000000000020587 0  0 0.4500000000018723 0  0 0.4000000000016644 0  0 0.3500000000014564 0  0 0.3000000000012483 0  0 0.2500000000010403 0  0 0.2000000000008322 0  0 0.1500000000006241 0  0 0.100000000000416 0  0 0.05000000000020799 0  0.04999999999989965 0 0  0.09999999999981467 0 0  0.1499999999997036 0 0  0.1999999999995579 0 0  0.2499999999994121 0 0  0.2999999999992664 0 0  0.3499999999991206 0 0  0.3999999999989749 0 0  0.4499999999988292 0 0  0.4999999999986943 0 0  0.5499999999988151 0 0  0.5999999999989468 0 0  0.6499999999990784 0 0  0.69999999999921 0 0  0.7499999999993417 0 0  0.7999999999994734 0 0  0.8499999999996051 0 0  0.8999999999997368 0 0  0.9499999999998684 0 0  1 0.04999999999989965 0  1 0.09999999999981467 0  1 0.1499999999997036 0  1 0.1999999999995579 0  1 0.2499999999994121 0  1 0.2999999999992664 0  1 0.3499999999991206 0  1 0.3999999999989749 0  1 0.4499999999988292 0  1 0.4999999999986943 0  1 0.5499999999988151 0  1 0.5999999999989468 0  1 0.6499999999990784 0  1 0.69999999999921 0  1 0.7499999999993417 0  1 0.7999999999994734 0  1 0.8499999999996051 0  1 0.8999999999997368 0  1 0.9499999999998684 0  0.9499999999997918 1 0  0.8999999999995836 1 0  0.8499999999996529 1 0  0.7999999999999998 1 0  0.7500000000003466 1 0  0.7000000000006934 1 0  0.6500000000010401 1 0  0.6000000000013869 1 0  0.5500000000017335 1 0  0.5000000000020587 1 0  0.4500000000018723 1 0  0.4000000000016644 1 0  0.3500000000014564 1 0  0.3000000000012483 1 0  0.2500000000010403 1 0  0.2000000000008322 1 0  0.1500000000006241 1 0  0.100000000000416 1 0  0.05000000000020799 1 0  -0.1 1.05000000000004 0  -0.1 1.000000000000079 0  -0.1 0.9500000000001624 0  -0.1 0.9000000000003032 0  -0.1 0.850000000000444 0  -0.1 0.8000000000005848 0  -0.1 0.7500000000007256 0  -0.1 0.7000000000008665 0  -0.1 0.6500000000010508 0  -0.1 0.6000000000012352 0  -0.1 0.5500000000014196 0  -0.1 0.500000000001539 0  -0.1 0.4500000000014195 0  -0.1 0.4000000000013 0  -0.1 0.3500000000011588 0  -0.1 0.3000000000010178 0  -0.1 0.2500000000008986 0  -0.1 0.2000000000007579 0  -0.1 0.1500000000006174 0  -0.1 0.1000000000005272 0  -0.1 0.05000000000040083 0  -0.1 2.671196597248127e-13 0  -0.1 -0.0499999999998666 0  -0.0500000000000906 -0.1 0  -1.730560139634463e-13 -0.1 0  0.04999999999975802 -0.1 0  0.09999999999961506 -0.1 0  0.1499999999994613 -0.1 0  0.199999999999302 -0.1 0  0.2499999999991446 -0.1 0  0.2999999999990088 -0.1 0  0.3499999999988296 -0.1 0  0.3999999999986936 -0.1 0  0.4499999999985143 -0.1 0  0.4999999999984002 -0.1 0  0.5499999999985247 -0.1 0  0.5999999999986493 -0.1 0  0.6499999999987955 -0.1 0  0.6999999999989417 -0.1 0  0.7499999999990659 -0.1 0  0.7999999999992116 -0.1 0  0.8499999999993573 -0.1 0  0.8999999999994526 -0.1 0  0.949999999999584 -0.1 0  0.9999999999997226 -0.1 0  1.049999999999861 -0.1 0  1.1 -0.0500000000000906 0  1.1 -1.730560139634463e-13 0  1.1 0.04999999999975802 0  1.1 0.09999999999961506 0  1.1 0.1499999999994613 0  1.1 0.199999999999302 0  1.1 0.2499999999991446 0  1.1 0.2999999999990088 0  1.1 0.3499999999988296 0  1.1 0.3999999999986936 0  1.1 0.4499999999985143 0  1.1 0.4999999999984002 0  1.1 0.5499999999985247 0  1.1 0.5999999999986493 0  1.1 0.6499999999987955 0  1.1 0.6999999999989417 0  1.1 0.7499999999990659 0  1.1 0.7999999999992116 0  1.1 0.8499999999993573 0  1.1 0.8999999999994526 0  1.1 0.949999999999584 0  1.1 0.9999999999997226 0  1.1 1.049999999999861 0  1.05000000000004 1.1 0  1.000000000000079 1.1 0  0.9500000000001624 1.1 0  0.9000000000003032 1.1 0  0.850000000000444 1.1 0  0.8000000000005848 1.1 0  0.7500000000007256 1.1 0  0.7000000000008665 1.1 0  0.6500000000010508 1.1 0  0.6000000000012352 1.1 0  0.5500000000014196 1.1 0  0.500000000001539 1.1 0  0.4500000000014195 1.1 0  0.4000000000013 1.1 0  0.3500000000011588 1.1 0  0.3000000000010178 1.1 0  0.2500000000008986 1.1 0  0.2000000000007579 1.1 0  0.1500000000006174 1.1 0  0.1000000000005272 1.1 0  0.05000000000040083 1.1 0  2.671196597248127e-13 1.1 0  -0.0499999999998666 1.1 0  0.6573169443694664 0.7122362231821461 0  0.6831144823231654 0.7040209802711217 0  0.7076678440127008 0.692998366648387 0  0.7305402385135091 0.6792485170024656 0  0.7512355768805643 0.6627753822571496 0  0.7681687814090874 0.6430741435250551 0  0.780940668379219 0.6209662828807397 0  0.7913325432374686 0.5979216047127816 0  0.7992535368928348 0.5740642508097072 0  0.8043994534192336 0.5496257942190297 0  0.8071916176537471 0.5250076809848183 0  0.8076543925062634 0.5003603346964773 0  0.8056711250843739 0.4758858889164449 0  0.8012862387542828 0.451804548381234 0  0.7945233049969221 0.4282554844790568 0  0.7852297084740736 0.4055980989410538 0  0.7736174905092819 0.3839124732666989 0  0.7597691167132592 0.3633544450115559 0  0.743778610821258 0.3441016818809141 0  0.7257008368729408 0.3262320145094502 0  0.7052514141306828 0.3100806824697522 0  0.6830631117187241 0.2956199961885644 0  0.6589594337356695 0.2837307977032646 0  0.6336741122366883 0.274545581438198 0  0.6071389451120154 0.2689935372007346 0  0.5801153153736145 0.2659502356710836 0  0.5527220002277132 0.2650010717620079 0  0.52538448607086 0.2655885973123018 0  0.4982117956335629 0.2674190167266366 0  0.4710977333046479 0.269901891681013 0  0.4441866590820757 0.2731483120962877 0  0.4174915468562494 0.277267531724792 0  0.3917498434312492 0.2826303972881091 0  0.3673306549167961 0.2894420419167876 0  0.3437615489676297 0.2976017846560135 0  0.3215594794515182 0.306954789976756 0  0.3005796836283857 0.31809998545838 0  0.2809498122750152 0.3311645037755433 0  0.262718066134891 0.3460649255270555 0  0.2458635621472882 0.3627413927295569 0  0.2304080053639342 0.3810424600596555 0  0.2159553240029931 0.4009841138375501 0  0.202497774784042 0.4224411696371479 0  0.1903563318247203 0.4453115515445399 0  0.1806561025194437 0.469787467028182 0  0.1741150983747697 0.4955057118323255 0  0.1735974716768968 0.5224056845612064 0  0.1789814593963752 0.5489282215063254 0  0.1895918406611124 0.5736002830995173 0  0.2044661261037393 0.5957055152948066 0  0.2211449457397093 0.6159158867938289 0  0.2392404036451557 0.6341844849101277 0  0.258015626876288 0.650777048259749 0  0.2775199242441521 0.6658674550617145 0  0.2980553870916412 0.6791860753681236 0  0.3196915576075861 0.690676646852583 0  0.3424128252161517 0.7003040320193611 0  0.3659785231826345 0.7084241578672738 0  0.3905132220017611 0.715031227801617 0  0.416049014934991 0.720089776376714 0  0.4421578039691366 0.7235887039702135 0  0.4686816703504558 0.7258615326015192 0  0.495481790536718 0.7271759878764905 0  0.5225011305296744 0.727494171402945 0  0.5496085938305953 0.7269186930871638 0  0.5768424344143008 0.7256504615776938 0  0.6039908545326459 0.722504688452356 0  0.2619307444670188 0.6232752248783031 0  0.2414515528531337 0.4081236121644133 0  0.7527701115148617 0.6242557225807934 0  0.7819503336286523 0.535401001126746 0  0.6374939876510461 0.6970379613124933 0  0.6150739817044545 0.2903473575967899 0  0.717149454229843 0.3475976044750568 0  0.5165121523041738 0.2848195216066563 0  0.2899839020957891 0.3579743268641902 0  0.3452381395734618 0.3210409810214001 0  0.4421791265916871 0.29909259190333 0  0.3202155518608557 0.6649319411928236 0  0.3856314572244793 0.6910343115590412 0  0.4600128924814226 0.7030899766084279 0  0.5372908585851726 0.7076227767314751 0  0.7657568515272298 0.4231867289921854 0  0.2026810509693786 0.5515154117623788 0  0.2046966489239991 0.4693675490120647 0  0.7064868778780929 0.6699307758092974 0  0.3903972468402199 0.3061454479337142 0  0.7779141155043798 0.4683593441902501 0  0.588649695090235 0.7048563842229142 0  0.7718346218565073 0.5788488334110555 0  0.7445710223616129 0.3832058851098956 0  0.6805540584913166 0.3168660238381652 0  0.5698766806318489 0.2822161486549207 0  0.2281401883880735 0.5910348009847928 0  0.1922672907755422 0.5082983591706579 0  0.486328737973303 0.7056067988419518 0  0.4791054537443437 0.6826479366144592 0  0.4518113713033422 0.6797882918089778 0  0.4714650387945662 0.6590644159095927 0  0.4416028030149685 0.6557236466152696 0  0.458066287548257 0.6376845479514188 0  0.4839570833800909 0.6331929440573801 0  0.4318225936953632 0.6303339634314078 0  0.4541900292666669 0.6047945995090392 0  0.4122040915681442 0.6014694763720116 0  0.5032702922997327 0.5986395758478156 0  0.5437429671639438 0.6277713170275354 0  0.5509788537596317 0.5810492217092958 0  0.5858581391732561 0.6151127586025598 0  0.5978849360177592 0.568647516070577 0  0.6314458307252093 0.602249550832498 0  0.6447800910701904 0.5555379848341797 0  0.6803590656743826 0.5845117353069114 0  0.6936510456573582 0.5482183844641053 0  0.6581881151595964 0.5203953548973342 0  0.7000629755886234 0.5178245118435221 0  0.6774102742533247 0.4872606163643785 0  0.6286022709691861 0.494575161917285 0  0.6420287370791137 0.4589462392648161 0  0.6895009417265887 0.4475810775668524 0  0.659298989388286 0.4198980208064271 0  0.6112455850287605 0.4296041852227341 0  0.6251585646353733 0.3952545231881536 0  0.5809650602475824 0.400850568780637 0  0.5984764519914479 0.3650834893324253 0  0.5497726886627722 0.3662855970525333 0  0.5366960505845398 0.4043086327941761 0  0.5041576933490551 0.3680985354533656 0  0.4903246615812161 0.4088805491142699 0  0.4571937341433953 0.3718470162347255 0  0.4434449980904794 0.4121341808744908 0  0.6645565747993575 0.618
[...]
<CellData  Scalars="interface">
<DataArray  type="Float64"  Name="interface"  format="ascii">0 0 0 0 0 0 0 0 0 0 0 0 0 0 0 0 0 0 0 0 0 0 0 0 0 0 0 0 0 0 0 0 0 0 0 0 0 0 0 0 0 0 0 0 0 0 0 12 12 0 0 0 0 0 0 0 0 0 0 0 0 0 0 0 0 0 0 0 0 0 0 0 0 0 0 0 0 0 0 0 0 0 0 0 0 0 0 0 0 0 0 0 0 0 0 0 0 0 0 0 0 0 0 0 0 0 0 0 0 0 0 0 0 0 0 0 0 0 0 0 0 0 0 0 0 0 0 0 0 0 0 0 0 0 0 0 0 0 0 0 0 0 0 0 0 0 0 0 0 0 0 0 0 0 0 0 0 0 0 0 0 0 0 0 0 0 0 0 0 0 0 0 0 0 0 0 0 0 0 0 0 0 0 0 0 0 0 0 0 0 0 0 0 0 0 0 0 0 0 0 0 0 0 0 0 0 0 0 0 0 0 0 0 0 0 0 0 0 0 0 0 0 0 0 0 0 0 0 0 0 0 0 0 0 0 0 0 0 0 0 0 0 0 0 0 0 0 0 0 0 0 0 0 0 0 0 0 0 0 0 0 0 0 0 0 0 0 0 0 0 0 0 0 0 0 0 0 0 0 0 0 0 0 0 0 0 0 0 0 0 0 0 0 0 0 0 0 0 0 0 0 0 0 0 0 0 0 0 0 0 0 0 0 0 0 0 0 0 0 0 0 0 0 0 0 0 0 0 0 0 0 0 0 0 0 0 0 0 0 0 0 0 0 0 0 0 0 0 0 0 0 0 0 0 0 0 0 0 0 0 0 0 0 0 0 0 0 0 0 0 0 0 0 0 0 0 0 0 0 0 0 0 0 0 0 0 0 0 0 0 0 0 0 0 0 0 0 0 0 0 0 0 0 0 0 0 0 0 0 0 0 0 0 0 0 0 0 0 0 0 0 0 0 0 0 0 0 0 0 0 0 0 0 0 0 0 0 0 0 0 0 0 0 0 0 0 0 0 0 0 0 0 0 0 0 0 0 0 0 0 0 0 0 0 0 0 0 0 0 0 0 0 0 0 0 0 0 0 0 0 0 0 0 0 0 0 0 0 0 0 0 0 0 0 0 0 0 0 0 0 0 0 0 0 0 0 0 0 0 0 0 0 0 0 0 0 0 0 0 0 0 0 0 0 0 0 0 0 0 0 0 0 0 0 0 0 0 0 0 0 0 0 0 0 0 0 0 0 0 0 0 0 0 0 0 0 0 0 0 0 0 0 0 0 0 0 0 0 0 0 0 0 0 0 0 0 0 0 0 0 0 0 0 0 0 0 0 0 0 0 0 0 0 0 0 0 0 0 0 0 0 0 0 0 0 0 0 0 0 0 0 0 0 0 0 0 0 0 0 0 0 0 0 0 0 0 0 0 0 0 0 0 0 0 0 0 0 0 0 0 0 0 0 0 0 0 0 0 0 0 0 0 0 0 0 0 0 0 0 0 0 0 0 0 0 0 0 0 0 0 0 0 0 0 0 0 0 0 0 0 0 0 0 0 0 0 0 0 0 0 0 0 0 0 0 0 0 0 0 0 0 12 0 0 0 0 12 0 0 0 0 0 12 0 0 0 0 12 0 0 0 0 12 0 0 0 0 12 0 0 0 0 12 0 0 0 0 12 0 0 0 0 12 0 0 0 0 12 0 0 0 0 12 0 0 0 0 12 0 0 0 0 12 0 0 0 0 12 0 0 0 0 12 0 0 0 0 12 0 0 0 0 12 0 0 0 0 12 0 0 0 0 12 0 0 0 0 12 0 0 0 0 12 0 0 0 0 12 0 0 0 0 12 0 0 0 0 12 0 0 0 0 12 0 0 0 0 12 0 0 0 0 12 0 0 0 0 12 0 0 0 0 12 0 0 0 0 12 0 0 0 0 12 0 0 0 0 12 0 0 0 0 12 0 0 0 0 12 0 0 0 0 12 0 0 0 0 12 0 0 0 0 0 12 0 0 0 0 12 0 0 0 0 12 0 0 0 0 12 0 0 0 0 12 0 0 0 0 12 0 0 0 0 12 0 0 0 0 12 0 0 0 0 12 0 0 0 0 12 0 0 0 0 0 12 0 0 0 0 12 0 0 0 0 12 0 0 0 0 0 12 0 0 0 0 12 0 0 0 0 12 0 0 0 0 12 0 0 0 0 12 0 0 0 0 12 0 0 0 0 12 0 0 0 0 12 0 0 0 0 12 0 0 0 0 12 0 0 0 0 12 0 0 0 0 12 0 0 0 0 12 0 0 0 0 12 0 0 0 0 12 0 0 0 0 12 0 0 0 0 12 0 0 0 0 0 0 0 0 0 0 0 0 0 0 0 0 0 0 0 0 0 0 0 0 0 0 0 0 0 0 0 0 0 0 0 0 0 0 0 0 0 0 0 0 0 0 0 0 0 0 0 0 0 0 0 0 0 0 0 0 0 0 0 0 0 0 0 0 0 0 0 0 0 0 0 0 0 0 0 0 0 0 0 0 0 0 0 0 0 0 0 0 0 0 0 0 0 0 0 0 0 0 0 0 0 0 0 0 0 0 0 0 0 0 0 0 0 0 0 0 0 0 0 0 0 0 0 0 0 0 0 0 0 0 0 0 0 0 0 0 0 0 0 0 0 0 0 0 0 0 0 0 0 0 0 0 0 0 0 0 0 0 0 0 0 0 0 0 0 0 0 0 0 0 0 0 0 0 0 0 0 0 0 0 0 0 0 0 0 0 0 0 0 0 0 0 0 0 0 0 0 0 0 0 0 0 0 0 0 0 0 0 0 0 0 0 0 0 0 0 0 0 0 0 0 0 0 0 0 0 0 0 0 0 0 0 0 0 0 0 0 0 0 0 0 0 0 0 0 0 0 0 0 0 0 0 0 0 0 0 0 0 0 0 0 0 0 0 0 0 0 0 0 0 0 0 0 0 0 0 0 0 0 0 0 0 0 0 0 0 0 0 0 0 0 0 0 0 0 0 0 0 0 0 0 0 0 0 0 0 0 0 0 0 0 0 0 0 0 0 0 0 0 0 0 0 0 0 0 0 0 0 0 0 0 0 0 0 0 0 0 0 0 0 0 0 0 0 0 0 0 0 0 0 0 0 0 0 0 0 0 0 0 0 0 0 0 0 0 0 0 0 0 0 0 0 0 0 0 0 0 0 0 0 0 0 0 0 0 0 0 0 0 0 0 0 0 0 0 0 0 0 0 0 0 0 0 0 0 0 0 0 0 0 0 0 0 0 0 0 0 0 0 0 0 0 0 0 0 0 0 0 0 0 0 0 0 0 0 0 0 0 0 0 0 0 0 0 0 0 0 0 0 0 0 0 0 0 0 0 0 0 0 0 0 0 0 0 0 0 0 0 0 0 0 0 0 0 0 0 0 0 0 0 0 0 0 0 0 0 0 0 0 0 0 0 0 0 0 0 0 0 0 0 0 0 0 0 0 0 0 0 0 0 0 0 0 0 0 0 0 0 0 0 0 0 0 0 0 0 0 0 0 0 0 0 0 0 0 0 0 0 0 0 0 0 0 0 0 0 0 0 0 0 0 0 0 0 0 0 0 0 0 0 0 0 0 0 0 0 0 0 0 0 0 0 0 0 0 0 0 0 0 0 0 0 0 0 0 0 0 0 0 0 0 0 0 0 0 0 0 0 0 0 0 0 0 0 0 0 0 0 0 0 0 0 0 0 0 0 0 0 0 0 0 0 0 0 0 0 0 0 0 0 0 0 0 0 0 0 0 0 0 0 0 0 0 0 0 0 0 0 0 0 0 0 0 0 0 0 0 0 0 0 0 0 0 0 0 0 0 0 0 0 0 0 0 0 0 0 0 0 0 0 0 0 0 0 0 0 0 0 0 0 0 0 0 0 0 0 0 0 0 0 0 0 0 0 0 0 0 0 0 0 0 0 0 0 0 0 0 0 0 0 0 0 0 0 0 0 0 0 0 0 0 0 0 0 0 0 0 0 0 0 0 0 0 0 0 0 0 0 0 0 0 0 0 0 0 0 0 0 0 0 0 0 0 0 0 0 0 0 0 0 0 0 0 0 0 0 0 0 0 0 0 0 0 0 0 0 0 0 0 0 0 0 0 0 0 0 0 0 0 0 0 0 0 0 0 0 0 0 0 0 0 0 0 0 0 0 0 0 0 0 0 0 0 0 0 0 0 0 0 0 0 0 0 0 0 0 0 0 0 0 0 0 0 0 0 0 0 0 0 0 0 0 0 0 0 0 0 0 0 0 0 0 0 0 0 0 0 0 0 0 0 0 0 0 0 0 0 0 0 0 0 0 0 0 0 0 0 0 0 0 0 0 0 0 0 0 0 0 0 0 0 0 0 0 0 0 0 0 0 0 0 0 0 0 0 0 0 0 0 0 0 0 0 0 0 0 0 0 0 0 0 0 0 0 0 0 0 0 0 0 0 0 0 0 0 0 0 0 0 0 0 0 0 0 0 0 0 0 0 0 0 0 0 0 0 0 0 0 0 0 0 0 0 0 0 0 0 0 0 0 0 0 0 0 0 0 0 0 0 0 0 0 0 0 0 0 0 0 0 0 0 0 0 0 0 0 0 0 0 0 0 0 0 0 0 0 0 0 0 0 0 0 0 0 0 0 0 0 0 0 0 0 0 0 0 0 0 0 0 0 0 0 0 0 0 0 0 0 0 0 0 0 0 0 0 0 0 0 0 0 0 0 0 0 0 0 0 0 0 0 0 0 0 0 0 0 0 0 0 0 0 0 0 0 0 0 0 0 0 0 0 0 0 0 0 0 0 0 0 0 0 0 0 0 0 0 0 0 0 0 0 0 0 0 0 0 0 0 0 0 0 0 0 0 0 0 0 0 0 0 0 0 0 0 0 0 0 0 0 0 0 0 0 0 0 0 0 0 0 0 0 0 0 0 0 0 0 0 0 0 0 0 0 0 0 0 0 0 0 0 0 0 0 0 0 0 0 0 0 0 0 0 0 0 0 0 0 0 0 0 0 0 0 0 0 0 0 0 0 0 0 0 0 0 0 0 0 0 0 0 0 0 0 0 0 0 0 0 0 0 0 0 0 0 0 0 0 0 0 0 0 0 0 0 0 0 0 0 0 0 0 0 0 0 0 0 0 0 0 0 0 0 0 0 0 0 0 0 0 0 0 0 0 0 0 0 0 0 0 0 0 0 0 0 0 0 0 0 0 0 0 0 0 0 0 0 0 0 0 0 0 0 0 0 0 0 0 0 0 0 0 0 0 0 0 0 0 0 0 0 0 0 0 0 0 0 0 0 0 0 0 0 0 0 0 0 0 0 0 0 0 0 0 0 0 0 0 0 0 0 0 0 0 0 0 0 0 0 0 0 0 0 0 0 0 0 0 0 0 0 0 0 0 0 0 0 0 0 0 0 0 0 0 0 0 0 0 0 0 0 0 0 0 0 0 0 0 0 0 0 0 0 0 0 0 0 0 0 0 0 0 0 0 0 0 0 0 0 0 0 0 0 0 0 0 0 0 0 0 0 0 0 0 0 0 0 0 0 0 0 0 0 0 0 0 0 0 0 0 0 0 0 0 0 0 0 0 0 0 0 0 0 0 0 0 0 0 0 0 0 0 0 0 0 0 0 0 0 0 0 0 0 0 0 0 0 0 0 0 0 0 0 0 0 0 0 0 0 0 0 0 0 0 0 0 0 0 0 0 0 0 0 0 0 0 0 0 0 0 0 0 0 0 0 0 0 0 0 0 0 0 0 0 0 0 0 0 0 0 0 0 0 0 0 0 0 0 0 0 0 0 0 0 0 0 0 0 0 0 0 0 0 0 0 0 0 0 0 0 0 0 0 0 0 0 0 0 0 0 0 0 0 0 0 0 0 0 0 0 0 0 0 0 0 0 0 0 0 0 0 0 0 0 0 0 0 0 0 0 0 0 0 0 0 0 0 0 0 0 0 0 0 0 0 0 0 0 0 0 0 0 0 0 0 0 0 0 0 0 0 0 0 0 0 0 0 0 0 0 0 0 0 0 0 0 0 0 0 0 0 0 0 0 0 0 0 0 0 0 0 0 0 0 0 0 0 0 0 0 0 0 0 0 0 0 0 0 0 0 0 0 0 0 0 0 0 0 0 0 0 0 0 0 0 0 0 0 0 0 0 0 0 0 0 0 0 0 0 0 0 0 0 0 0 0 0 0 0 0 0 0 0 0 0 0 0 0 0 0 0 0 0 0 0 0 0 0 0 0 0 0 0 0 0 0 0 0 0 0 0 0 0 0 0 0 0 0 0 0 0 0 0 0 0 0 0 0 0 0 0 0 0 0 0 0 0 0 0 0 0 0 0 0 0 0 0 0 0 0 0 0 0 0 0 0 0 0 0 0 0 0 0 0 0 0 0 0 0 0 0 0 0 0 0 0 0 0 0 0 0 0 0 0 0 0 0 0 0 0 0 0 0 0 0 0 0 0 0 0 0 0 0 0 0 0 0 0 0 0 0 0 0 0 0 0 0 0 0 0 0 0 0 0 0 0 0 0 0 0 0 0 0 0 0 0 0 0 0 0 0 0 0 0 0 0 0 0 0 0 0 0 0 0 0 0 0 0 0 0 0 0 0 0 0 0 0 0 0 0 0 0 0 0 0 0 0 0 0 0 0 0 0 0 0 0 0 0 0 0 0 0 0 0 0 0 0 0 0 0 0 0 0 0 0 0 0 0 0 0 0 0 0 0 0 0 0 0 0 0 0 0 0 0 0 0 0 0 0 0 0 0 0 0 0 0 0 0 0 0 0 0 0 0 0 0 0 0 0 0 0 0 0 0 0 0 0 0 0 0 0 0 0 0 0 0 0 0 0 0 0 0 0 0 0 0 0 0 0 0 0 0 0 0 0 0 0 0 0 0 0 0 0 0 0 0 0 0 0 0 0 0 0 0 0 0 0 0 0 0 0 0 0 0 0 0 0 0 0 0 0 0 0 0 0 0 0 0 0 0 0 0 0 0 0 0 0 0 0 0 0 0 0 0 0 0 0 0 0 0 0 0 0 0 0 0 0 0 0 0 0 0 0 0 0 0 0 0 0 0 0 0 0 0 0 0 0 0 0 0 0 0 0 0 0 0 0 0 0 0 0 0 0 0 0 0 0 0 0 0 0 0 0 0 0 0 0 0 0 0 0 0 0 0 0 0 0 0 0 0 0 0 0 0 0 0 0 0 0 0 0 0 0 0 0 0 0 0 0 0 0 0 0 0 0 0 0 0 0 0 0 0 0 0 0 0 0 0 0 0 0 0 0 0 0 0 0 0 0 0 0 0 0 0 0 0 0 0 0 0 0 0 0 0 0 0 0 0 0 0 0 0 0 0 0 0 0 0 0 0 0 0 0 0 0 0 0 0 0 0 0 0 0 0 0 0 0 0 0 0 0 0 0 0 0 0 0 0 0 0 0 0 0 0 0 0 0 0 0 0 0 0 0 0 0 0 0 0 0 0 0 0 0 0 0 0 0 0 0 0 0 0 0 0 0 0 0 0 0 0 0 0 0 0 0 0 0 0 0 0 0 0 0 0 0 0 0 0 0 0 0 0 0 0 0 0 0 0 0 0 0 0 0 0 0 0 0 0 0 0 0 0 0 0 0 0 0 0 0 0 0 0 0 0 0 0 0 0 0 0 0 0 0 0 0 0 0 0 0 0 0 0 0 0 0 0 0 0 0 0 0 0 0 0 0 0 0 0 0 0 0 0 0 0 0 0 0 0 0 0 0 0 0 0 0 0 0 0 0 0 0 0 0 0 0 0 0 0 0 0 0 0 0 0 0 0 0 0 0 0 0 0 0 0 0 0 0 0 0 0 0 0 0 0 0 0 0 0 0 0 0 0 0 0 0 0 0 0 0 0 0 0 0 0 0 0 0 0 0 0 0 0 0 0 0 0 0 0 0 0 0 0 0 0 0 0 0 0 0 0 0 0 0 0 0 0 0 0 0 0 0 0 0 0 0 0 0 0 0 0 0 0 0 0 0 0 0 0 0 0 0 0 0 0 0 0 0 0 0 0 0 0 0 0 0 0 0 0 0 0 0 0 0 0 0 0 0 0 0 0 0 0 0 0 0 0 0 0 0 0 0 0 0 0 0 0 0 0 0 0 0 0 0 0 0 0 0 0 0 0 0 0 0 0 0 0 0 0 0 0 0 0 0 0 0 0 0 0 0 0 0 0 0 0 0 0 0 0 0 0 0 0 0 0 0 0 0 0 0 0 0 0 0 0 0 0 0 0 0 0 0 0 0 0 0 0 0 0 0 0 0 0 0 0 0 0 0 0 0 0 0 0 0 0 0 0 0 0 0 0 0 0 0 0 0 0 0 0 0 0 0 0 0 0 0 0 0 0 0 0 0 0 0 0 0 0 0 0 </DataArray>
</CellData>
</Piece>
</UnstructuredGrid>
</VTKFile>