<?xml version="1.0"?>
<VTKFile type="UnstructuredGrid"  version="0.1"  >
<UnstructuredGrid>
<Piece  NumberOfPoints="1078" NumberOfCells="2058">
<Points>
<DataArray  type="Float64"  NumberOfComponents="3"  format="ascii">0 0 0  0 1 0  1 1 0  1 0 0  1.1 -0.1 0  -0.1 -0.1 0  1.1 1.1 0  -0.1 1.1 0  0.5349707371714774 0.5900827594945587 0  0 0.9499999999997918 0  0 0.8999999999995836 0  0 0.8499999999996529 0  0 0.7999999999999998 0  0 0.7500000000003466 0  0 0.7000000000006934 0  0 0.6500000000010401 0  0 0.6000000000013869 0  0 0.5500000000017335 0  0 0.5000000000020587 0  0 0.4500000000018723 0  0 0.4000000000016644 0  0 0.3500000000014564 0  0 0.3000000000012483 0  0 0.2500000000010403 0  0 0.2000000000008322 0  0 0.1500000000006241 0  0 0.100000000000416 0  0 0.05000000000020799 0  0.04999999999989965 0 0  0.09999999999981467 0 0  0.1499999999997036 0 0  0.1999999999995579 0 0  0.2499999999994121 0 0  0.2999999999992664 0 0  0.3499999999991206 0 0  0.3999999999989749 0 0  0.4499999999988292 0 0  0.4999999999986943 0 0  0.5499999999988151 0 0  0.5999999999989468 0 0  0.6499999999990784 0 0  0.69999999999921 0 0  0.7499999999993417 0 0  0.7999999999994734 0 0  0.8499999999996051 0 0  0.8999999999997368 0 0  0.9499999999998684 0 0  1 0.04999999999989965 0  1 0.09999999999981467 0  1 0.1499999999997036 0  1 0.1999999999995579 0  1 0.2499999999994121 0  1 0.2999999999992664 0  1 0.3499999999991206 0  1 0.3999999999989749 0  1 0.4499999999988292 0  1 0.4999999999986943 0  1 0.5499999999988151 0  1 0.5999999999989468 0  1 0.6499999999990784 0  1 0.69999999999921 0  1 0.7499999999993417 0  1 0.7999999999994734 0  1 0.8499999999996051 0  1 0.8999999999997368 0  1 0.9499999999998684 0  0.9499999999997918 1 0  0.8999999999995836 1 0  0.8499999999996529 1 0  0.7999999999999998 1 0  0.7500000000003466 1 0  0.7000000000006934 1 0  0.6500000000010401 1 0  0.6000000000013869 1 0  0.5500000000017335 1 0  0.5000000000020587 1 0  0.4500000000018723 1 0  0.4000000000016644 1 0  0.3500000000014564 1 0  0.3000000000012483 1 0  0.2500000000010403 1 0  0.2000000000008322 1 0  0.1500000000006241 1 0  0.100000000000416 1 0  0.05000000000020799 1 0  -0.1 1.05000000000004 0  -0.1 1.000000000000079 0  -0.1 0.9500000000001624 0  -0.1 0.9000000000003032 0  -0.1 0.850000000000444 0  -0.1 0.8000000000005848 0  -0.1 0.7500000000007256 0  -0.1 0.7000000000008665 0  -0.1 0.6500000000010508 0  -0.1 0.6000000000012352 0  -0.1 0.5500000000014196 0  -0.1 0.500000000001539 0  -0.1 0.4500000000014195 0  -0.1 0.4000000000013 0  -0.1 0.3500000000011588 0  -0.1 0.3000000000010178 0  -0.1 0.2500000000008986 0  -0.1 0.2000000000007579 0  -0.1 0.1500000000006174 0  -0.1 0.1000000000005272 0  -0.1 0.05000000000040083 0  -0.1 2.671196597248127e-13 0  -0.1 -0.0499999999998666 0  -0.0500000000000906 -0.1 0  -1.730560139634463e-13 -0.1 0  0.04999999999975802 -0.1 0  0.09999999999961506 -0.1 0  0.1499999999994613 -0.1 0  0.199999999999302 -0.1 0  0.2499999999991446 -0.1 0  0.2999999999990088 -0.1 0  0.3499999999988296 -0.1 0  0.3999999999986936 -0.1 0  0.4499999999985143 -0.1 0  0.4999999999984002 -0.1 0  0.5499999999985247 -0.1 0  0.5999999999986493 -0.1 0  0.6499999999987955 -0.1 0  0.6999999999989417 -0.1 0  0.7499999999990659 -0.1 0  0.7999999999992116 -0.1 0  0.8499999999993573 -0.1 0  0.8999999999994526 -0.1 0  0.949999999999584 -0.1 0  0.9999999999997226 -0.1 0  1.049999999999861 -0.1 0  1.1 -0.0500000000000906 0  1.1 -1.730560139634463e-13 0  1.1 0.04999999999975802 0  1.1 0.09999999999961506 0  1.1 0.1499999999994613 0  1.1 0.199999999999302 0  1.1 0.2499999999991446 0  1.1 0.2999999999990088 0  1.1 0.3499999999988296 0  1.1 0.3999999999986936 0  1.1 0.4499999999985143 0  1.1 0.4999999999984002 0  1.1 0.5499999999985247 0  1.1 0.5999999999986493 0  1.1 0.6499999999987955 0  1.1 0.6999999999989417 0  1.1 0.7499999999990659 0  1.1 0.7999999999992116 0  1.1 0.8499999999993573 0  1.1 0.8999999999994526 0  1.1 0.949999999999584 0  1.1 0.9999999999997226 0  1.1 1.049999999999861 0  1.05000000000004 1.1 0  1.000000000000079 1.1 0  0.9500000000001624 1.1 0  0.9000000000003032 1.1 0  0.850000000000444 1.1 0  0.8000000000005848 1.1 0  0.7500000000007256 1.1 0  0.7000000000008665 1.1 0  0.6500000000010508 1.1 0  0.6000000000012352 1.1 0  0.5500000000014196 1.1 0  0.500000000001539 1.1 0  0.4500000000014195 1.1 0  0.4000000000013 1.1 0  0.3500000000011588 1.1 0  0.3000000000010178 1.1 0  0.2500000000008986 1.1 0  0.2000000000007579 1.1 0  0.1500000000006174 1.1 0  0.1000000000005272 1.1 0  0.05000000000040083 1.1 0  2.671196597248127e-13 1.1 0  -0.0499999999998666 1.1 0  0.5665608103899219 0.5845330718664039 0  0.5940825912302581 0.5652110286904961 0  0.6039467677847284 0.5331877060122298 0  0.6056597214136665 0.5011300909152444 0  0.6046538529293893 0.4693905297724148 0  0.6008118774107497 0.437883619807605 0  0.5937648070777085 0.4065736638803859 0  0.5826903574034139 0.3758064569176748 0  0.5653591053449141 0.3470660831335655 0  0.538218527440076 0.3269619745903835 0  0.5065429788946738 0.3260066597346039 0  0.4772858810348546 0.3339595564914842 0  0.4497875702567108 0.3446946662470112 0  0.4232503730964218 0.3569645609154694 0  0.3974835624826989 0.3702907715209401 0  0.3723501165417389 0.3844278474391294 0  0.3477446456514536 0.3992395488070949 0  0.3237186758279642 0.4147426729665452 0  0.3002556069326432 0.4309929771123525 0  0.2775204512224156 0.4481623400122533 0  0.2559988144428495 0.4668078677580448 0  0.2377636754004693 0.4890717599806249 0  0.2433802765600473 0.5165775438054108 0  0.2699466239987307 0.5340664225947828 0  0.2981010965200245 0.5468500206948448 0  0.3266855293598076 0.557339068007136 0  0.3555958216377625 0.5662125754443514 0  0.3847405662554875 0.5737536835741019 0  0.4141128515686937 0.5800083762131027 0  0.4437715367157935 0.5849575799496349 0  0.4737108038117992 0.5885271862572398 0  0.5040509649449669 0.5904345382739905 0  0.5750458591976801 0.4560696643426433 0  0.4240960765200806 0.3907499152962492 0  0.4654278473138339 0.5562049206679598 0  0.35031516241634 0.4313949844969597 0  0.4012740214371658 0.5486144189606906 0  0.4776759417231073 0.3681102574482865 0  0.5217844974932956 0.5603310742096548 0  0.3445577829166852 0.5341673280454533 0  0.5612977977187805 0.3966783925068668 0  0.3050892134595867 0.4637118877869726 0  0.5755972132974939 0.5171235865476542 0  0.5308153491333963 0.3525328825966435 0  0.2900520669422226 0.5136922277215353 0  0.2636054866080364 0.4999752814968188 0  0.5716803325575731 0.5492599681502317 0  0.5426669737325274 0.5338098537709474 0  0.5503680676808759 0.4991413849621261 0  0.5208579213845212 0.5105542066917604 0  0.5253525312862651 0.4788471302326363 0  0.496359479322276 0.4893373943535668 0  0.5008981980453736 0.4566936977891235 0  0.4718427148058887 0.4673249037509093 0  0.4757436489140384 0.4347014229303571 0  0.4471100729098559 0.444986212121311 0  0.4431848137227468 0.4778112332559351 0  0.418818736566844 0.4550647285844712 0  0.5048000143332241 0.4242593495566806 0  0.4152130638042556 0.4876037260986286 0  0.3921537278814233 0.4651295175313801 0  0.3888748626762085 0.4961257548908139 0  0.4385163753782023 0.5108937664716553 0  0.3964301066397367 0.4334289041391678 0  0.3659957843380776 0.4746797092376986 0  0.4887714889239095 0.5247651386514735 0  0.4781978559972071 0.4021631778666997 0  0.5046904573326325 0.3916612453246023 0  0.5287018783516784 0.4479381237596824 0  0.4673385162639563 0.5002681001230125 0  0.5369370985574062 0.4166818055055593 0  0.4500037521596765 0.4126903335372542 0  0.4225671102907593 0.4230677569517199 0  0.4337927124277355 0.5467707565046108 0  0.3727943689182098 0.5422730548405867 0  0.4944265936478582 0.559404745838693 0  0.3267507976707174 0.4462280955454241 0  0.3355805077157417 0.4785615004547656 0  0.4505745510270017 0.3792612223332902 0  0.361735115874359 0.5083051165611566 0  0.3171332349852468 0.5258659497257882 0  0.283715690646588 0.4812135696598518 0  0.3976033690497103 0.4025144307652005 0  0.5703917158843106 0.426071009438592 0  0.577315366470335 0.4858147869553412 0  0.4124096296834953 0.5186425878078862 0  0.3093042766175336 0.4950968677696072 0  0.5547733146278228 0.3718670960122519 0  0.3731445460506271 0.4157855593470639 0  0.5051073558507551 0.359949394125386 0  0.4602165085645924 0.5276726323850296 0  0.5328997285839412 0.3842590363177981 0  0.5519428081984807 0.4693417490182005 0  0.3337238889546801 0.5084332012173791 0  0.3719222808368945 0.4453346120710487 0  0.5128010894823372 0.5366684400792208 0  0.5468819959263478 0.5639555582039695 0  0.3874682098312199 0.5228263992838266 0  0.5526705651418107 0.4432396100766602 0  0.3479127119744573 0.4556752619110827 0  0.6028559454987105 0.3857454581064013 0  0.6223036551815357 0.4848515163031975 0  0.3656270223634526 0.586810268182489 0  0.5487657259811242 0.6039364420684026 0  0.9891823878317703 0.7095225200937302 0  0.6512437711190524 0.9917509257889573 0  0.454697654582092 0.604770420321637 0  0.9958788124434208 0.5452601258483745 0  0.9842037814052768 0.2807831494126566 0  0.2911291081147204 0.9799225220649361 0  0.3493706535481611 0.3737719990385108 0  0.426558030513318 0.3315764773577333 0  0.4479983384822775 0.9893271940257184 0  0.2791166969619283 0.5561777539729432 0  0.06530948371773759 0.7558088938025336 0  0.7084633305947707 0.05408539257009036 0  0.2756723123597093 0.421886565173978 0  0.6151894265831416 0.5505398292099892 0  0.807411405165075 0.9905334382522094 0  0.2478068939878767 0.05830741619639987 0  0.06812241091910376 0.247333959225002 0  0.2339979873635517 0.4610637488012476 0  0.5617685164632912 0.06101853816320518 0  0.4069387301750668 0.05828143355026777 0  0.8501420361689063 0.04858194710557796 0  0.2221290822299798 0.5037385220295103 0  0.4866403854020921 0.3135482449045149 0  0.06531957182503943 0.6027217253913383 0  0.9926360950482783 0.8553846285808424 0  0.06482252552523503 0.3460758740869825 0  0.6069209236039411 0.5774367444336982 0  0.6289713215988714 0.5652708546934454 0 
[...]
<PointData  Scalars="u"> 
<DataArray  type="Float64"  Name="u"  format="ascii">-1.1621831087890662e-18  -5.3576447768215497e-19  1.3773461321898110e-18  -6.6250142420139202e-19  1.6055465488877422e-20  2.6118050679432760e-20  -7.8751076760341345e-20  3.0720923270363769e-20  -4.3295333038481421e-01  -7.6490871613657537e-19  -6.7542710415198763e-18  -2.2548143038136297e-17  -1.5618783931744375e-17  3.8084411697983928e-17  1.4422683439270817e-17  -2.6600736517727324e-17  1.9188298501472042e-17  4.9032699368621292e-18  -1.2196404334893158e-17  -4.0980616272922346e-17  -4.8083663186454793e-18  2.7235269577646372e-18  2.3613086917754448e-17  3.4379939269920691e-18  0.0000000000000000e+00  2.8788263916305752e-17  -1.1888060745260937e-19  2.0973805476926864e-18  -9.3778401798916036e-18  -2.4655695668752349e-18  -6.1190124307382332e-18  1.3230124638715155e-17  -7.5548367090674215e-18  -3.7116244302750502e-17  1.1179334718215524e-18  3.8043239801987932e-17  -3.8084108247924612e-18  4.6544517772694114e-19  -3.5103725284054422e-17  -8.4759517214857924e-18  -4.2749488265942399e-17  -4.9070394405760449e-18  9.6589043639477100e-18  -2.1240688907635262e-17  -6.1168890230797999e-18  4.0869846350944482e-18  -1.2432439617560905e-18  -2.7300745603344809e-18  -1.1146040265028134e-17  9.4506324927128912e-18  3.3731754023774891e-18  9.9104501565486142e-18  2.3837966994651956e-17  -2.3078642879875044e-18  -2.4014781720130491e-19  -7.4611930534610222e-18  5.1337513290334418e-18  -5.3094765423801979e-18  -9.9415258124805632e-18  -5.4122906104889370e-18  -1.1276423276140133e-18  -6.0224063610844260e-18  2.9812163811108246e-18  5.2447976191435550e-18  1.0000851186768664e-19  -2.7952793642214249e-19  -3.4836396477227076e-18  3.0215885495743238e-18  -6.3102167612627509e-18  -4.7720317267490467e-18  5.9534098726011686e-18  1.0659544604856621e-17  8.9991992923273501e-18  -2.8029962985768642e-17  -1.6676531790015080e-17  2.1163849014638521e-18  -4.1339600083162895e-18  5.7975605601093705e-19  1.3445159386841242e-17  1.8917654022420441e-17  6.1548044901572316e-19  -1.7835813630243944e-17  9.8990435699071746e-18  2.0575762375613739e-18  1.6971633546009468e-18  -2.9306258373400362e-20  1.3935120442092391e-20  -2.6154959361184705e-19  -1.0910157179137212e-18  -3.2796009073828865e-18  -1.5754622256788208e-18  5.6519214939611591e-18  2.0127155276979223e-18  -2.4288087409322061e-18  1.2601589014057503e-18  1.5964710329416510e-18  -2.6001326914815249e-18  -4.5696508575640103e-18  -2.2021388725350894e-18  2.4220505262622568e-18  2.6697280781092789e-18  4.4104134263743918e-19  8.6807945711684579e-19  2.7400805172637996e-18  1.6472092514302689e-18  -6.5437985177690115e-19  1.8030287679388283e-19  -1.2699441645113386e-19  1.2146222771181170e-19  -4.4184226069132150e-19  -9.2223318895503494e-19  -8.8846707469726806e-19  -3.2981019064433963e-19  2.1374135120710724e-18  -1.4820964943500674e-18  -2.3098722689342795e-18  6.1722051225699063e-19  3.8888151435740014e-18  1.5666827736675964e-18  -2.8840829967163524e-18  -3.5044388452922314e-18  -3.0515383190530072e-18  -4.7054819546014282e-18  2.3572692307395841e-19  1.0410398480653084e-18  -2.2603652624228682e-18  -1.3218694029595142e-18  8.5596680263951076e-19  5.8619369301648528e-20  -2.0610475459195538e-19  2.3340028200919841e-20  -2.9032240188207939e-20  5.1519948290423052e-20  -8.6733725765537105e-19  -4.4969393496556948e-19  7.9460688258037957e-19  6.8300941273471419e-19  1.9656086203381984e-18  1.6593964335558310e-18  2.0660346903456408e-19  -5.7971795685455381e-19  -4.9888837612283631e-19  4.1006596345316528e-19  -7.2118187272006733e-19  -1.3198134846748946e-18  1.9594465332293471e-19  -6.7213193745127453e-19  -5.9097798152512867e-19  3.7529039748030357e-19  1.0286801225537718e-18  3.8577358759154993e-21  -1.7236350685244461e-20  1.2879225818826307e-19  3.4746984805460842e-20  9.5312844185306702e-20  -1.2347093158567569e-20  -9.5452518746619334e-20  2.2733333598992938e-20  -6.9177202097703467e-19  -5.7592849941057242e-19  6.3508264250372263e-19  1.9012440606955274e-18  4.7276792404716301e-19  -3.2156819341371584e-18  -2.5169489912413587e-18  -4.0443912214475142e-20  -2.3243224553059497e-19  -2.0934398521014653e-19  1.6923671728372778e-18  2.6937624701454952e-18  -1.9133557347852622e-19  -1.7313049447664193e-18  3.1317309168249599e-19  8.9771074570513924e-19  -2.6289603427797851e-20  -1.5728620235911772e-20  -2.8135780297060291e-20  -4.3972147271806450e-01  -4.4179686677509455e-01  -4.3685350562010522e-01  -4.3051404625549516e-01  -4.2503615711525311e-01  -4.2040850105681982e-01  -4.1613646698178219e-01  -4.1180736427918940e-01  -4.0608552399520081e-01  -3.9814077818079729e-01  -3.9036306259598069e-01  -3.8408923903858061e-01  -3.7896834842964511e-01  -3.7457816584218329e-01  -3.7054111917843868e-01  -3.6667574790998814e-01  -3.6275203723172789e-01  -3.5866415902325499e-01  -3.5396964905317202e-01  -3.4933014618047764e-01  -3.4398578150645442e-01  -3.3932074611444030e-01  -3.4570176156244259e-01  -3.5914709873090223e-01  -3.6974004165493890e-01  -3.7878298261772181e-01  -3.8723517856333101e-01  -3.9493360716283143e-01  -4.0241249331537132e-01  -4.0981320215227479e-01  -4.1730260920583029e-01  -4.2486894233282491e-01  -3.8998209120751770e-01  -3.4852645268762278e-01  -3.7865969824264412e-01  -3.3991461181761978e-01  -3.6465207248636222e-01  -3.6049504127364806e-01  -3.9689372832053010e-01  -3.5299212396183627e-01  -3.8369611887746413e-01  -3.3784135468194398e-01  -4.0258779462144928e-01  -3.7852178787779744e-01  -3.4365825615832973e-01  -3.3739262055143326e-01  -4.1199303684914840e-01  -3.9300354156782968e-01  -3.8353731893470638e-01  -3.7188758238375935e-01  -3.6447004978617598e-01  -3.5421821885483562e-01  -3.5103474097037607e-01  -3.4384965993680511e-01  -3.4333467519825500e-01  -3.3777891458545067e-01  -3.3893792335158535e-01  -3.3480239261225125e-01  -3.5244710669882534e-01  -3.3763918231451351e-01  -3.3383962431334874e-01  -3.3907678979055628e-01  -3.4943504061219766e-01  -3.3767073217861560e-01  -3.3483043659656814e-01  -3.6673127333360156e-01  -3.5011654971442097e-01  -3.6046500317589164e-01  -3.6347922830685903e-01  -3.5018387085395142e-01  -3.6895283013948893e-01  -3.4368316721909470e-01  -3.3964601721738896e-01  -3.6746680134659970e-01  -3.5893251886141081e-01  -3.8756362079163270e-01  -3.3781259780908113e-01  -3.3712625054982592e-01  -3.5347223385353643e-01  -3.4265839563492395e-01  -3.4840336375942205e-01  -3.3813706164281560e-01  -3.4503950526977983e-01  -3.8636589739814048e-01  -3.9526647938985277e-01  -3.5019263641654835e-01  -3.4098235831416901e-01  -3.8407965270236127e-01  -3.4231022665257260e-01  -3.6921356437997210e-01  -3.6174012680923118e-01  -3.7289915518928601e-01  -3.7818124298602490e-01  -3.4321977586179364e-01  -3.3656736015091199e-01  -3.8139489382450970e-01  -4.0809731543825256e-01  -3.5047766739717812e-01  -3.7663338660769408e-01  -3.3615993538114547e-01  -4.3207969664160673e-01  -4.4657409447978885e-01  -4.1041503585289657e-01  -4.5361930173268289e-01  -2.8145022914381538e-02  -2.2440019288881074e-02  -4.3316713881152358e-01  -1.1778988685297679e-02  -3.9577525276160680e-02  -5.0249063764309043e-02  -3.8119417712975956e-01  -3.9261044633826953e-01  -2.9956525257795415e-02  -3.8099864743241324e-01  -1.3740468866679623e-01  -1.2584500249172559e-01  -3.6496062430191906e-01  -4.5660480045840018e-01  -2.0678751251645266e-02  -1.2124832274260401e-01  -1.3743640121827239e-01  -3.5050617472188883e-01  -1.5031762593148801e-01  -1.4027954427047890e-01  -8.4925691764307087e-02  -3.4788219903102618e-01  -4.0090141609408037e-01  -1.5302207409458063e-01  -1.4090980567475750e-02  -1.4514389456955556e-01  -4.5974142307936444e-01  -4.6007920550089709e-01  -4.6277773010246803e-01  -4.6311129307860438e-01  -4.6537481099124745e-01  -4.6419540759540512e-01  -4.6514721298555628e-01  -4.6113766763441361e-01  -4.5950548482769588e-01  -4.6348302495144494e-01  -4.5996223622863919e-01  -4.5434630074821786e-01  -4.5731221700696806e-01  -4.5023032490042963e-01  -4.4447261899657764e-01  -4.4524089298140318e-01  -4.2832026510327326e-01  -4.2572892333619589e-01  -4.2638084716319075e-01  -4.4230397705083313e-01  -4.2041640965834010e-01  -4.3629285739232776e-01  -4.1134564496916520e-01  -4.2769581191831074e-01  -3.9997512536234914e-01  -4.1716630772335483e-01  -4.0518343591827988e-01  -4.0063420599934996e-01  -3.8629282346955329e-01  -4.0413832775811026e-01  -3.8980052246334601e-01  -3.7523462183368023e-01  -3.6870105935147152e-01  -3.6991276245613541e-01  -3.8808997340696338e-01  -3.3889696767848176e-01  -3.3047116447868313e-01  -3.5396048095039362e-01  -4.1564035708788244e-01  -3.9978246119216759e-01  -3.6907566351995874e-01  -3.8008173925470656e-01  -3.4639960543116100e-01  -3.1199100273911978e-01  -3.2871071793960172e-01  -4.0427713032818607e-01  -3.8325995646482502e-01  -3.3928535569339424e-01  -4.3845428119024976e-01  -4.0183714738579834e-01  -3.7831142689505659e-01  -3.4474069816376690e-01  -2.8646756597896106e-01  -8.4902149076337224e-02  -2.6481333269831470e-01  -2.4657951974245820e-02  -7.7531825549254406e-03  -3.4276633905626470e-02  -4.3626864512287700e-02  -4.1782511546682027e-01  -3.5435582843217694e-01  -3.3998065527028015e-01  -3.4641655325293119e-01  -3.2627765027093425e-01  -3.2040062258901253e-01  -3.3201540629650750e-01  -4.6433176193440473e-01  -2.9793756601267163e-01  -3.5613808928198415e-01  -3.2502019322658043e-01  -1.0804032574565849e-01  -3.4676353470845434e-01  -2.9066194412644120e-01  -3.9268247276665558e-01  -3.5417891087535491e-01  -3.3882570456820277e-01  -2.3797051093736996e-01  -3.2052320413511920e-01  -4.5215074652976550e-01  -3.0036589079159720e-01  -2.9950138093126422e-01  -3.7570391162276290e-01  -3.3938189738501751e-01  -2.9201366641463788e-01  -2.9537571952159175e-01  -3.4165562972532526e-01  -2.9471157197773867e-01  -3.4097693514944466e-01  -2.9184053607717642e-01  -3.3798963347168448e-01  -2.8533613559083693e-01  -3.3218459530461647e-01  -2.7800737247605711e-01  -3.2442443571575846e-01  -3.7038498872940823e-01  -3.6269160410823981e-01  -3.1695743249712910e-01  -3.5399987270877531e-01  -3.9176568567414138e-01  -3.8297360755371579e-01  -3.4388557341436665e-01  -3.7132567422228363e-01  -3.3123275863704615e-01  -3.5478844048539787e-01  -3.8928875337787422e-01  -3.1558189301785389e-01  -3.6923261733395590e-01  -4.1687293726785968e-01  -3.9794246850605280e-01  -4.1758799364465982e-01  -3.7437811118029218e-01  -3.9861648891139395e-01  -3.7089636184964669e-01  -3.9225857638618217e-01  -3.4466810277412463e-01  -2.9847150928121124e-01  -4.1716225064536705e-01  -3.5937110240242537e-01  -3.8366142011390125e-01  -2.9177365977759034e-01  -2.6858325034996011e-01  -2.4039186784496935e-01  -1.8922473286348569e-02  -2.1321063272301680e-01  -1.8686104772181775e-01  -3.7986383881917429e-01  -4.1011264292288563e-01  -4.1360061378314805e-01  -4.0650893238840685e-01  -4.2031106576064459e-01  -1.9932292434018128e-01  -2.4363598126994968e-01  -3.1434405397219484e-01  -2.8694903089674495e-01  -3.0825858407302908e-01  -4.6012514318121273e-01  -2.2879126588925916e-01  -3.2660658976795987e-01  -2.7769190740846295e-01  -2.6196071614463962e-01  -3.1300617041692652e-01  -3.0587667047726513e-01  -3.4170955475549963e-01  -3.6189740659819969e-01  -3.2905517324359745e-01  -2.5106340973285729e-01  -2.2257965271848920e-01  -2.1374561184564606e-01  -2.7687248234062700e-01  -9.9410023658184063e-02  -2.7724539284708710e-01  -3.0817565190177998e-01  -2.7384514126587811e-01  -3.0806287407455724e-01  -3.6230587408045917e-01  -4.1531614281698215e-01  -2.0850733815962322e-01  -2.7640234102083716e-01  -2.8650250722860182e-01  -2.0940844281922130e-01  -1.5999971438212415e-01  -1.7240229350197506e-01  -1.3783429941380182e-01  -4.6331489433187351e-01  -2.3896541548671224e-01  -2.4464099317991103e-01  -3.1467076462146210e-01  -4.1267732172382343e-01  -4.2019308403331518e-01  -4.3339933245141588e-01  -4.3920447080256353e-01  -4.4560758532589906e-01  -4.5006204836560021e-01  -4.4414857977947886e-01  -4.5028893982152990e-01  -4.4623935355447608e-01  -4.4646214256101957e-01  -4.4288599941807077e-01  -4.4146523941768728e-01  -4.3867857353764933e-01  -3.1601263420157399e-01  -3.3909721062783749e-01  -2.8656316292338907e-01  -4.0043138190404337e-02  -4.7569284623227584e-02  -4.2276625249722799e-01  -4.1838005619365298e-01  -3.7516579646487774e-01  -3.5520996103920005e-01  -3.1409735926290305e-01  -3.3396911838559079e-01  -3.6763851098990508e-01  -3.4963321547199311e-01  -3.8009112695213820e-01  -3.6194722765223020e-01  -3.8329779850278184e-01  -3.6914599246441632e-01  -3.4099497368340648e-01  -3.5010915750926641e-01  -3.7344790256129157e-01  -3.5490633315393361e-01  -3.7354280552723745e-01  -3.5421720017183528e-01  -3.6887217133175532e-01  -3.4715672371411987e-01  -3.2710715647904670e-01  -3.5878763460514007e-01  -3.3283187271836112e-01  -3.1330390465257796e-01  -3.4207370241766311e-01  -3.0994500088627686e-01  -2.9919681974407814e-01  -3.8701249469797366e-01  -3.7496873483813764e-01  -3.0589562848031271e-01  -4.2709413145881087e-01  -2.3691527292478876e-01  -1.5058254619602984e-01  -1.5963029413299226e-01  -1.7645883404305565e-01  -3.1671501961163956e-01  -3.4762059788510091e-01  -2.7579073566546242e-01  -3.2845876112834721e-01  -3.0276136796369402e-01  -1.7869213961865973e-01  -4.3545433515692294e-01  -3.9260846892962747e-01  -3.9257819851025666e-01  -4.4154334305882748e-01  -4.5407562510026100e-01  -1.9289113973933472e-01  -1.1770946163069525e-01  -4.2913021803734691e-01  -1.7091477892777950e-02  -2.7639348624085380e-01  -2.4917578088627396e-01  -2.1279988043933074e-01  -1.8452521381379550e-01  -3.3292227305517869e-01  -4.1528867686651277e-01  -2.9717861938393697e-01  -2.5936674900079898e-01  -2.7961249254493137e-01  -1.9904169985867154e-01  -1.9828449782253954e-01  -1.5615194323809031e-01  -1.4350815880786205e-01  -1.3883970454171060e-01  -1.1638152040352653e-01  -1.1860647473118341e-01  -1.7869421752043516e-01  -1.4334279112372070e-01  -2.0685044734225480e-01  -1.3492235904132305e-01  -1.9772924665017622e-01  -1.2608169447647716e-01  -1.8944811924097565e-01  -3.7171374045187405e-01  -3.8027638386402252e-01  -3.6953937142211046e-01  -3.8634905358470872e-01  -3.9434850436944735e-01  -3.9866864218910736e-01  -4.0662322225523895e-01  -4.0876153802560838e-01  -4.1712854691967194e-01  -4.1798408006508125e-01  -4.2608437681450512e-01  -4.2651957736920154e-01  -4.3361722261233221e-01  -4.3442129845432542e-01  -4.4113865141692443e-01  -4.4202085947180969e-01  -4.4768005982067188e-01  -4.4962935094758621e-01  -4.5295841586352864e-01  -4.5514686937594467e-01  -4.4360946890632125e-01  -4.5078795930342352e-01  -4.5650373564413155e-01  -4.5940859946192242e-01  -4.6115044863603816e-01  -2.5997184221501696e-01  -1.7438603250492210e-01  -3.1940276962640202e-01  -2.2160639169833435e-01  -4.2635481906655126e-01  -4.0440207287837510e-01  -2.7159104372178355e-01  -2.7932621823647275e-01  -1.2327637505847763e-01  -3.3066225117967130e-01  -4.1320402131475381e-01  -1.9657145923124336e-01  -2.0869062930329532e-01  -3.9921927508636584e-01  -3.9650257079987072e-01  -3.1861585636699014e-01  -3.3410121073745941e-01  -4.0020814016761619e-01  -7.1453894941931995e-02  -2.7298070380310657e-01  -1.7946377763974619e-01  -6.4571866246787055e-02  -4.4411917433424636e-01  -5.9685748315467288e-02  -4.3434927948435853e-01  -2.1902310987106516e-01  -2.4288881711790353e-01  -2.9206523506727644e-01  -2.5550403584744130e-01  -1.7410408111578482e-01  -4.4442280141256252e-01  -2.3756575715908637e-01  -4.3763153814021488e-01  -4.3112969144591140e-01  -4.5842884129934530e-01  -4.0681257576891305e-01  -1.2187143876891292e-01  -1.0239668905330997e-01  -4.4587865315850483e-01  -1.1034349203088031e-01  -1.7637440168265806e-01  -9.8858009816301481e-02  -4.6271599017976123e-01  -4.5221578204295654e-01  -4.5090254070546604e-01  -3.9819028863550371e-01  -3.9437213184750125e-01  -3.9450018699217376e-01  -1.3939513849080093e-01  -1.6913715141144994e-01  -1.1024460046616336e-01  -1.5248683502598495e-01  -3.9188334305159256e-01  -1.1819754016339677e-01  -1.7993910188911277e-01  -1.0779743939900019e-01  -1.6607274628749571e-01  -2.2768169623183901e-01  -2.0863477686423754e-01  -1.4859746662475143e-01  -1.8008119245221046e-01  -2.3449567163159343e-01  -1.2323985941257484e-01  -1.9350140455118528e-01  -2.4259053326038624e-01  -1.8524920183976631e-01  -2.3206717253007866e-01  -2.8200116295012578e-01  -4.4998819215589203e-01  -3.5813457741841931e-01  -3.6021013049214334e-01  -3.6762661319041939e-01  -3.5020954973814139e-01  -3.9829177187479803e-01  -3.8324946526337123e-01  -3.8797253415181571e-01  -3.8249644908922870e-01  -3.7558563458333072e-01  -3.7868021033698818e-01  -3.8509979482933049e-01  -4.2707502535200131e-01  -2.5174675211716613e-01  -2.1033795835692262e-01  -2.4982810620783305e-01  -2.2192745543654888e-01  -1.6113046018227681e-01  -4.1707597718953321e-01  -4.3674430835630701e-01  -2.1332686206264224e-02  -1.0772172421753558e-01  -3.6502569794209477e-01  -1.4281663974330683e-01  -2.2149131919743412e-01  -2.0382698972790156e-01  -1.2407731288891573e-01  -1.8431320454347214e-01  -2.4205267203918004e-01  -2.0773447335823286e-01  -1.5278542723830446e-01  -8.8803243655164968e-02  -2.6443294863090688e-01  -4.2290036149713961e-01  -4.3316121700167237e-01  -4.2826533642110237e-01  -4.0335363803333296e-01  -1.6115192455729774e-01  -3.7102279369002639e-01  -3.2262382475509255e-01  -3.3194873184005130e-01  -3.9671727719713007e-01  -3.9984596414299534e-01  -4.1100565652732879e-01  -3.7754914327582900e-01  -4.1072506057037927e-01  -4.1116803799105439e-01  -4.3475582213389863e-01  -4.3257828509980678e-01  -4.3426129268547431e-01  -4.0958352800804915e-01  -4.3219865826185583e-01  -4.5043715586270155e-01  -4.0606335613255412e-01  -4.5554896788196680e-01  -4.4635381419060655e-01  -4.5786386018370773e-01  -3.5014662393822893e-02  -7.9657140174112198e-02  -4.4269565116308324e-01  -3.3259094427185182e-01  -3.7008720796625683e-01  -8.3180228232499612e-02  -2.6270180196397980e-01  -2.8196612983479027e-02  -3.2263063717388879e-02  -2.8678262692350465e-01  -2.7412751293018850e-01  -1.3534169574333055e-01  -1.3139917825796402e-01  -1.9612554181553613e-01  -3.8574507088426441e-01  -3.8901137882629144e-01  -3.8531499012487164e-01  -3.8875660223106040e-01  -3.9174460214173823e-01  -4.4647015373956672e-01  -1.1525131419221563e-01  -1.7699917484549668e-01  -1.0311652525404615e-01  -3.7498679062514495e-01  -1.4214080950040503e-01  -2.3712677171988955e-01  -2.2041627533445582e-01  -1.0467044306267047e-01  -4.5568579050276892e-01  -2.2659035980448222e-01  -4.0859295001011142e-01  -4.5391045719696693e-01  -1.6945761122438653e-02  -3.0411468168966484e-02  -3.3724138045659068e-02  -2.4854306909408280e-01  -4.3323760820108537e-01  -6.9300235191651363e-02  -3.6265367027950346e-01  -2.2976613856171854e-01  -1.5241551213054894e-01  -3.3527040491384502e-01  -3.2375273487825762e-02  -3.0866273683621409e-01  -2.1226556484775100e-01  -6.5928549874915962e-02  -2.1634253936079678e-02  -8.8913042819621202e-02  -6.5853574185035804e-02  -4.4276202688686497e-02  -4.0754970071160318e-01  -3.6141935847596457e-01  -2.6205484733289414e-01  -4.3317423393413051e-01  -3.6541366008005660e-01  -1.6292552814217036e-02  -6.5043244899795225e-02  -1.3525684476566868e-01  -3.7694354474723718e-01  -2.6976578215123076e-01  -4.2725126258827073e-01  -1.0999199529433646e-02  -1.3500420632900820e-01  -9.8092714085143237e-02  -9.0117799320200864e-02  -1.7321878074852878e-01  -2.4198672065006516e-01  -2.1800682934431034e-02  -3.8923617196963656e-01  -2.4993620461701571e-01  -4.5807925019487805e-01  -4.5138390555732721e-01  -3.8010578729062422e-01  -1.7971030326390183e-01  -2.9923269901142913e-01  -1.4949513652828084e-01  -4.1851003833477035e-01  -3.2477759354505981e-01  -2.8227632328343122e-01  -4.5179712999343286e-01  -1.1560484776572073e-01  -1.5536511605187250e-01  -2.3199857142875024e-01  -2.2907513177650782e-01  -3.6280632852157518e-01  -3.36