<?xml version="1.0"?>
<VTKFile type="UnstructuredGrid"  version="0.1"  >
<UnstructuredGrid>
<Piece  NumberOfPoints="1277" NumberOfCells="2456">
<Points>
<DataArray  type="Float64"  NumberOfComponents="3"  format="ascii">0 0 0  0 1 0  1 1 0  1 0 0  1.1 -0.1 0  -0.1 -0.1 0  1.1 1.1 0  -0.1 1.1 0  0.5071886116542381 0.5045415904264682 0  0.6297922403256048 0.7146858650873632 0  0 0.9499999999997918 0  0 0.8999999999995836 0  0 0.8499999999996529 0  0 0.7999999999999998 0  0 0.7500000000003466 0  0 0.7000000000006934 0  0 0.6500000000010401 0  0 0.6000000000013869 0  0 0.5500000000017335 0  0 0.5000000000020587 0  0 0.4500000000018723 0  0 0.4000000000016644 0  0 0.3500000000014564 0  0 0.3000000000012483 0  0 0.2500000000010403 0  0 0.2000000000008322 0  0 0.1500000000006241 0  0 0.100000000000416 0  0 0.05000000000020799 0  0.04999999999989965 0 0  0.09999999999981467 0 0  0.1499999999997036 0 0  0.1999999999995579 0 0  0.2499999999994121 0 0  0.2999999999992664 0 0  0.3499999999991206 0 0  0.3999999999989749 0 0  0.4499999999988292 0 0  0.4999999999986943 0 0  0.5499999999988151 0 0  0.5999999999989468 0 0  0.6499999999990784 0 0  0.69999999999921 0 0  0.7499999999993417 0 0  0.7999999999994734 0 0  0.8499999999996051 0 0  0.8999999999997368 0 0  0.9499999999998684 0 0  1 0.04999999999989965 0  1 0.09999999999981467 0  1 0.1499999999997036 0  1 0.1999999999995579 0  1 0.2499999999994121 0  1 0.2999999999992664 0  1 0.3499999999991206 0  1 0.3999999999989749 0  1 0.4499999999988292 0  1 0.4999999999986943 0  1 0.5499999999988151 0  1 0.5999999999989468 0  1 0.6499999999990784 0  1 0.69999999999921 0  1 0.7499999999993417 0  1 0.7999999999994734 0  1 0.8499999999996051 0  1 0.8999999999997368 0  1 0.9499999999998684 0  0.9499999999997918 1 0  0.8999999999995836 1 0  0.8499999999996529 1 0  0.7999999999999998 1 0  0.7500000000003466 1 0  0.7000000000006934 1 0  0.6500000000010401 1 0  0.6000000000013869 1 0  0.5500000000017335 1 0  0.5000000000020587 1 0  0.4500000000018723 1 0  0.4000000000016644 1 0  0.3500000000014564 1 0  0.3000000000012483 1 0  0.2500000000010403 1 0  0.2000000000008322 1 0  0.1500000000006241 1 0  0.100000000000416 1 0  0.05000000000020799 1 0  -0.1 1.05000000000004 0  -0.1 1.000000000000079 0  -0.1 0.9500000000001624 0  -0.1 0.9000000000003032 0  -0.1 0.850000000000444 0  -0.1 0.8000000000005848 0  -0.1 0.7500000000007256 0  -0.1 0.7000000000008665 0  -0.1 0.6500000000010508 0  -0.1 0.6000000000012352 0  -0.1 0.5500000000014196 0  -0.1 0.500000000001539 0  -0.1 0.4500000000014195 0  -0.1 0.4000000000013 0  -0.1 0.3500000000011588 0  -0.1 0.3000000000010178 0  -0.1 0.2500000000008986 0  -0.1 0.2000000000007579 0  -0.1 0.1500000000006174 0  -0.1 0.1000000000005272 0  -0.1 0.05000000000040083 0  -0.1 2.671196597248127e-13 0  -0.1 -0.0499999999998666 0  -0.0500000000000906 -0.1 0  -1.730560139634463e-13 -0.1 0  0.04999999999975802 -0.1 0  0.09999999999961506 -0.1 0  0.1499999999994613 -0.1 0  0.199999999999302 -0.1 0  0.2499999999991446 -0.1 0  0.2999999999990088 -0.1 0  0.3499999999988296 -0.1 0  0.3999999999986936 -0.1 0  0.4499999999985143 -0.1 0  0.4999999999984002 -0.1 0  0.5499999999985247 -0.1 0  0.5999999999986493 -0.1 0  0.6499999999987955 -0.1 0  0.6999999999989417 -0.1 0  0.7499999999990659 -0.1 0  0.7999999999992116 -0.1 0  0.8499999999993573 -0.1 0  0.8999999999994526 -0.1 0  0.949999999999584 -0.1 0  0.9999999999997226 -0.1 0  1.049999999999861 -0.1 0  1.1 -0.0500000000000906 0  1.1 -1.730560139634463e-13 0  1.1 0.04999999999975802 0  1.1 0.09999999999961506 0  1.1 0.1499999999994613 0  1.1 0.199999999999302 0  1.1 0.2499999999991446 0  1.1 0.2999999999990088 0  1.1 0.3499999999988296 0  1.1 0.3999999999986936 0  1.1 0.4499999999985143 0  1.1 0.4999999999984002 0  1.1 0.5499999999985247 0  1.1 0.5999999999986493 0  1.1 0.6499999999987955 0  1.1 0.6999999999989417 0  1.1 0.7499999999990659 0  1.1 0.7999999999992116 0  1.1 0.8499999999993573 0  1.1 0.8999999999994526 0  1.1 0.949999999999584 0  1.1 0.9999999999997226 0  1.1 1.049999999999861 0  1.05000000000004 1.1 0  1.000000000000079 1.1 0  0.9500000000001624 1.1 0  0.9000000000003032 1.1 0  0.850000000000444 1.1 0  0.8000000000005848 1.1 0  0.7500000000007256 1.1 0  0.7000000000008665 1.1 0  0.6500000000010508 1.1 0  0.6000000000012352 1.1 0  0.5500000000014196 1.1 0  0.500000000001539 1.1 0  0.4500000000014195 1.1 0  0.4000000000013 1.1 0  0.3500000000011588 1.1 0  0.3000000000010178 1.1 0  0.2500000000008986 1.1 0  0.2000000000007579 1.1 0  0.1500000000006174 1.1 0  0.1000000000005272 1.1 0  0.05000000000040083 1.1 0  2.671196597248127e-13 1.1 0  -0.0499999999998666 1.1 0  0.6562412570221642 0.7076912112574615 0  0.6816859767835586 0.6986662164247324 0  0.7056906518294707 0.6872877867757228 0  0.7277868224831413 0.6734076139589956 0  0.7476707939392839 0.6570644237161819 0  0.7644251128990747 0.6380707659064189 0  0.7780088793259329 0.6169944939092444 0  0.7890504326193708 0.5946163799572649 0  0.7977355949571932 0.5712486572602937 0  0.8039018625430203 0.5471499887554041 0  0.8076161075630913 0.522808670386078 0  0.8090567763614201 0.4983268576394971 0  0.8079122906365248 0.4739742780541571 0  0.8042616011015313 0.4500452834645982 0  0.7981046680602494 0.4267810859478983 0  0.7894169539616697 0.4045638575140657 0  0.7782097920841398 0.3836031802771876 0  0.7645391010962792 0.3641283943557306 0  0.7486020808471293 0.3462634147235795 0  0.7303588699856464 0.3300782819386 0  0.7095992336705365 0.3156195471210481 0  0.6866799448183402 0.3028371001189778 0  0.6613501860538937 0.2925927777642547 0  0.6348350938582844 0.2849885410982814 0  0.6072605844710326 0.2797365255834206 0  0.5790760536164818 0.2760150327368697 0  0.550013663842993 0.2738507424711484 0  0.5210430610003886 0.2727251665334965 0  0.4923100252313903 0.2721064528540151 0  0.4635809272996855 0.2717395372334973 0  0.4350967514549671 0.2718980724236951 0  0.4068529567439736 0.2730689422136923 0  0.3802942830243615 0.2759011008212202 0  0.3557180139248984 0.2805890024983814 0  0.3324612103654092 0.287153275837675 0  0.3115451048792617 0.2952482234479085 0  0.2924195403514283 0.30557002682288 0  0.2750697630866917 0.3182192387692302 0  0.2594866377986288 0.3330907617697462 0  0.2456357035459053 0.3501607513070181 0  0.2333757383314807 0.3691541792439845 0  0.2220938514681646 0.3906093515551327 0  0.2120439034488397 0.4142427656048899 0  0.2035510330277819 0.4395747502782368 0  0.1973376050968493 0.4662187147511672 0  0.1938246380230357 0.4933306702967776 0  0.1938002653160535 0.5211838249380422 0  0.1985733228525974 0.5485824108571268 0  0.2069695096720526 0.5749515650171271 0  0.2184669326113566 0.5999584728240703 0  0.2320882363620879 0.6226039594478712 0  0.2471166875731204 0.6428496914353523 0  0.2626919972610152 0.6606784099685111 0  0.2790671701321212 0.6764381988555306 0  0.2967026361283066 0.6901147923648361 0  0.3158969471466988 0.7017629752812228 0  0.3367262101093111 0.7113205375472156 0  0.3590356945326934 0.7189184025132024 0  0.3829710872505591 0.7245260269525217 0  0.4086815509801537 0.7282501983972116 0  0.4353514609306018 0.7302202296841881 0  0.4627273863318353 0.730730498321097 0  0.4905108053052466 0.730240043005261 0  0.5185756720821474 0.7290013036716262 0  0.5466851064062282 0.7272045733130243 0  0.5749396790277211 0.7250487275513862 0  0.6027850800504515 0.7205776330845836 0  0.2684278644164438 0.6308811299118997 0  0.2463237062725584 0.3988395760454128 0  0.7499183634177988 0.6197675559933312 0  0.7819136244415321 0.5329634151324401 0  0.6358260195859999 0.6938485195759092 0  0.6153516144585295 0.2993853505120868 0  0.72107062734991 0.3508570465676089 0  0.5117967118467841 0.2899630052472768 0  0.2868834659646223 0.3470348027768651 0  0.3367656291266223 0.3114643680221665 0  0.4341124363570379 0.2970992865259787 0  0.3191402225338183 0.6745302057032669 0  0.3802308199249386 0.699915564234468 0  0.454614488598779 0.7083976885046512 0  0.5339468161285068 0.7087632719356811 0  0.7690913283668289 0.4225314132424098 0  0.2192254047408837 0.5522857702501438 0  0.2186025403383061 0.4649279357038741 0  0.7040016628086602 0.6648882369333349 0  0.3809905930184956 0.2995455753259049 0  0.780106050460228 0.4668186317550143 0  0.5865863204922707 0.7039190322112889 0  0.7702819394868828 0.5756428031483892 0  0.7485001829294908 0.3841268318663916 0  0.6837027042436652 0.322920915068677 0  0.5680329949100399 0.2905632367341703 0  0.2399104174580816 0.5957078025835105 0  0.2099202931015062 0.5065018728011454 0  0.4815093555749522 0.7093812821936593 0  0.4747923227939102 0.6867311360327057 0  0.4472647102979084 0.6852002184349705 0  0.4678309256621755 0.6632103282985238 0  0.4380796740018703 0.6610328288638059 0  0.4551447167824003 0.6418962805311585 0  0.4810531039272758 0.6364525213378437 0  0.4294211965630875 0.6352247202866661 0  0.4522301784739689 0.6082624493858622 0  0.4112462093306554 0.6057695731069208 0  0.5009926640688347 0.6007481568201315 0  0.5410665178989731 0.6289333905545502 0  0.548837391774767 0.5818273668945857 0  0.5834414599823615 0.6148971184980209 0  0.5959777886939575 0.5683541943721772 0  0.6292761635383907 0.600722871011111 0  0.6433020355088175 0.5543460146136855 0  0.678563053518794 0.5820210095298411 0  0.6926711659838146 0.5462261390394781 0  0.6574416348274582 0.5195804161040483 0  0.6998643241191636 0.5163941888619721 0  0.6775690377678902 0.4868721072427297 0  0.6278867596222003 0.4947024500080442 0  0.6420291684467169 0.4597245521256166 0  0.6906931556467635 0.4480472888886086 0  0.6602382115419677 0.4216705740827122 0  0.6108774940035099 0.4313652022964043 0  0.6253782316506562 0.3981742716499042 0  0.5798856037424642 0.4033149948866053 0  0.5978869942882343 0.3692003257212174 0  0.5475279852413157 0.3692677621874055 0  0.534592706640477 0.4058332314302707 0  0.5006554512335444 0.3691982831302609 0  0.4876068715194645 0.4089393587656618 0  0.4529390799225125 0.3704579545951193 0  0.4407107395498006 0.4104488152160189 0  0.66229
[...]
<PointData  Scalars="u"> 
<DataArray  type="Float64"  Name="u"  format="ascii">-2.3584105993448164e-18  -3.7206759224621027e-18  -2.4731776748532267e-17  6.2449591531819488e-19  1.2191038502939648e-20  2.0434806753791703e-19  -2.5409093088164349e-19  3.0018883387432963e-19  1.3234040590496371e-01  -6.0732380944935105e-02  -8.3617195757261384e-18  -3.6111154163930045e-17  1.7475725252795036e-17  1.0022445195690481e-17  -2.8044673655421585e-17  -2.8012498012580811e-17  -5.3532528761281431e-18  1.0637416052277632e-16  -8.8442424496330889e-18  -3.7773677302911625e-17  1.1859665528183990e-17  -2.8539775313009636e-17  -3.6030666523960515e-17  4.9858870683655085e-17  1.2862696055622964e-17  -1.9575161616307402e-17  -9.8831102731010684e-19  -4.8489185688716060e-17  2.4306762267946456e-17  -2.3134788409820221e-17  -2.4954306461957347e-17  -1.3272168982320297e-17  -5.0832066874060845e-17  -7.5229703319328457e-18  -2.8283127078644133e-17  5.2773449679552399e-17  -2.7844853761538300e-17  -4.9955701387585218e-17  5.1543626679427455e-17  -7.9950858110048698e-17  -1.3001189205448959e-16  -9.1034073623098341e-17  -4.6628505942119403e-18  2.6924755526916924e-18  -5.9329500423584544e-17  -2.2748067352778454e-17  -1.7829885794701764e-17  1.8591790823535115e-19  2.0121165585256612e-17  3.9054992396543094e-17  7.4320625297586896e-18  -1.7645394601379361e-16  1.6233899786761675e-16  2.2386285753871053e-17  -1.5730023269951295e-16  -1.8157716111218000e-17  1.6208267208281831e-16  -1.2785579486837842e-16  -4.1765283851097951e-16  -5.4392558837236297e-17  1.5274304846857371e-16  1.1666595946772882e-16  -1.9644922801852179e-17  1.8001642949413840e-16  1.5565172778640648e-17  5.8282951281193034e-18  -8.5750194997949753e-17  -6.2468175952296750e-18  -2.9814273206567871e-17  -5.6431553721575003e-17  1.3657499255901319e-16  0.0000000000000000e+00  -3.6359037843298262e-18  3.3555212663722851e-17  -2.3263179520928585e-16  1.0275617889473711e-16  2.1837220892348147e-16  -1.0101842083787108e-16  8.0145255210166002e-17  3.5519425165996784e-16  3.1363619330579528e-16  -1.8512840566003255e-16  7.0305697364541441e-17  -1.1936245980428095e-17  7.2829695061769779e-17  8.7426819670672257e-17  -1.3651023939880547e-19  1.3199242923112013e-19  -2.9795998325374658e-18  -3.7872374917709138e-18  1.3803791885561964e-18  1.4681123532819300e-18  -3.9160432137854511e-18  -7.0700966518378070e-18  4.6781413794545175e-18  1.2926098490836230e-17  1.0591216046227335e-18  -5.1502680246234809e-18  -1.1166750020444687e-18  -2.6152918296254185e-18  -2.4796789005421464e-18  2.4126731937529577e-18  2.8282654007117105e-18  -7.7356291076027903e-19  -3.0578996147691032e-18  -2.7983751474196585e-18  -2.7857637926688896e-19  1.5425051420599632e-18  -7.2071318227232505e-19  1.9303294681078078e-19  -5.7924748091774493e-19  -2.6975071476224368e-18  -4.2792206063008346e-18  -4.0800629959124671e-18  -4.8838729544009931e-18  -4.3212473345811187e-18  1.2816169765197344e-18  4.6428438678984172e-18  -4.1189712045002833e-18  -3.5064786090892969e-18  -1.4155178798959732e-19  -9.3804528066796189e-18  -1.8990925027567661e-17  -1.3115441426157457e-17  1.4336535827086739e-18  1.2011809171883855e-18  -6.9968257225431436e-18  -4.7439859577033007e-18  -1.5835202130707854e-18  -1.8473608234543363e-19  2.0562290850396962e-19  -2.2459934751632748e-20  -1.0341527427948952e-19  4.4101989799762463e-19  -4.5618985167074476e-19  -8.2589505810868374e-19  -1.2669602723106543e-18  -2.6393534865868975e-18  1.5939829633752302e-18  -1.0407635454710406e-19  -5.2337105433027140e-18  -3.9921504360930104e-18  -1.8345957129370432e-18  -1.9348119018543653e-18  -6.2752427298819552e-18  -4.6852233258035111e-18  4.9127868641788905e-18  5.5967041263536493e-19  -2.8531053007038814e-18  1.9142408050829730e-18  2.1564992069139254e-18  4.1303467762809497e-19  -1.5896593294763293e-18  -3.2535518392656818e-19  3.2800761591300713e-19  8.4666911736742527e-20  7.0118557301822073e-19  -9.6987362565524211e-19  -1.8533110901161538e-18  -5.5670533276140927e-18  -4.7645094789638341e-18  -9.6872805789305094e-19  1.4604245454052863e-18  3.4586324485456921e-18  -7.8270249168903953e-19  -1.5701851563097892e-18  3.4312042234157093e-19  -7.0041990942552924e-19  -3.0930673395355062e-18  3.4598616850559002e-18  6.5459028382701978e-18  -3.7251956521422209e-18  -3.3037809138596580e-18  -1.9762822460626387e-18  -1.5916304647333493e-19  2.0154110176341425e-18  6.4719127459761175e-19  -5.4452947120490594e-19  -6.4276355064901175e-02  -6.7148269124251536e-02  -6.9269022122990687e-02  -6.9632498981248847e-02  -6.8359806167371445e-02  -6.5365813492379993e-02  -6.1272162647941053e-02  -5.7024724103844321e-02  -5.3209530814598754e-02  -5.0311444959723423e-02  -4.8565812787505977e-02  -4.8164354305832213e-02  -4.9054390965811476e-02  -5.1039978958414986e-02  -5.3976551274146016e-02  -5.7545106761466590e-02  -6.1188150814338191e-02  -6.4381561133900936e-02  -6.7010836513280783e-02  -6.8665229548273490e-02  -6.8970443896312655e-02  -6.8203943672035319e-02  -6.5915757259651195e-02  -6.2614745875191821e-02  -5.8704192072043193e-02  -5.5049499279592302e-02  -5.1938854603085560e-02  -4.9933137853069173e-02  -4.9576668056791728e-02  -5.0911254522084115e-02  -5.3836029331817019e-02  -5.7967619958479544e-02  -6.2116193775466413e-02  -6.5794861754360598e-02  -6.9112495128325388e-02  -7.1108982447254152e-02  -7.2152009547463619e-02  -7.1455147914928602e-02  -6.9409741912390521e-02  -6.6056353472505491e-02  -6.2011531034123976e-02  -5.7782849115700016e-02  -5.3876726233505354e-02  -5.0995139327961334e-02  -4.9266224457798935e-02  -4.8864824088709652e-02  -5.0160087395034865e-02  -5.1907056689186229e-02  -5.4289831308492298e-02  -5.7718085812658484e-02  -6.1009723301294186e-02  -6.4093527753877721e-02  -6.6820451077385129e-02  -6.8934980284076977e-02  -7.0083388290873377e-02  -7.0073894178323867e-02  -6.8683959677018319e-02  -6.6386634617604634e-02  -6.3301058052628437e-02  -5.9637117144412576e-02  -5.6216220900944400e-02  -5.3345114110651841e-02  -5.1556808060868230e-02  -5.1068639639417372e-02  -5.2257757792326290e-02  -5.5099650956309643e-02  -5.7826811467032078e-02  -2.0251503642289295e-02  -1.5574697798222754e-02  -2.3774253104147703e-02  -1.1875191405886401e-02  -1.9855435150288619e-02  -1.8845644445830364e-02  -2.5431119632647520e-02  -7.5611517549835300e-03  -2.0942526053536956e-02  -2.3039037781183911e-02  -4.7534190140129029e-03  -2.2529901166588259e-02  -1.7737092222838612e-02  -7.7975088534517770e-03  -7.8341152270278939e-03  -1.5501181842998511e-02  -1.8244673558033064e-02  -1.4004208927459265e-02  -2.7640472947349906e-02  -1.6238774816778333e-02  -1.0575778146404815e-02  -1.3110157254167384e-02  -1.5533438775057624e-02  -2.0562792907430551e-02  -2.6898508037216148e-02  -1.4526660966651438e-02  -1.9768730074869581e-02  -1.8118690062130585e-02  -6.5377995959233015e-03  1.7722683940990348e-02  1.6113014423161022e-02  4.2552557950262020e-02  4.0174576492502931e-02  6.2959654316651986e-02  7.1059643887058641e-02  6.4060350226273363e-02  8.9817896470746963e-02  8.1362045824581689e-02  9.8984580122468815e-02  7.5004887917823740e-02  1.0577969723309906e-01  7.6401753070871131e-02  9.9862606144836080e-02  6.8954499518802323e-02  8.4761363633232417e-02  5.3020198079655155e-02  5.8109520793935436e-02  8.5317124942137695e-02  5.8970327795322436e-02  7.4123574363494329e-02  1.0180455705579043e-01  8.9777251566327210e-02  5.7719315278843344e-02  6.5431845102090477e-02  9.3715011929913175e-02  6.9537356845124132e-02  8.9434247332754527e-02  5.8807701362233351e-02  7.2411457271806298e-02  1.0046198994992139e-01  7.6894771733293302e-02  1.0470007066640381e-01  7.4740051586549200e-02  1.0001896616244360e-01  3.9805668044106721e-02  6.6179427841161806e-02  8.3719796568688276e-02  4.3213388734015173e-02  5.8176914088825867e-02  6.6135438186380957e-02  9.7848127458847967e-02  8.2107928363396518e-02  1.0193718179197030e-01  8.2828007163701159e-02  6.3948966167041044e-02  6.2664198530934898e-02  7.2974933677982676e-02  5.1409596204804502e-02  5.4810243083602557e-02  4.0596052726547184e-02  1.1444231161607304e-01  7.4716784803784422e-02  5.0669530438455145e-02  1.1707726532551048e-01  3.9983579356660887e-02  2.7872881098552158e-02  1.8160635830426514e-02  2.1847688698467489e-02  4.9711344040293752e-02  3.8001465987520043e-02  5.5388853904918940e-02  4.7795347932297484e-02  1.4553416372964758e-02  6.7801327542920911e-02  3.2031852148604906e-02  3.8007129178580616e-02  3.0534738111079929e-02  3.0141549918838859e-02  1.4035480505870531e-02  1.2445038857555627e-02  3.3978736986582679e-02  1.6861228415685929e-02  4.8233651067613077e-02  2.4985037435560277e-02  2.8589116304872170e-02  2.0323199556056524e-02  2.8030377092712052e-02  9.6517483332471277e-03  1.1378368499452579e-01  4.4257154643709377e-02  1.5928054509498406e-02  1.7628775039836217e-02  1.1342256494018271e-02  2.8977463972630776e-02  1.8660445747396788e-02  2.6457688424353198e-02  5.0440680210407977e-02  2.8581909960622594e-02  2.1856913743194876e-02  7.1704286353383717e-03  1.0581567256966139e-02  1.6722763287352477e-02  2.3449850202478972e-02  -9.4576290835393373e-03  5.5681772457905010e-02  1.8027834880418626e-02  3.6848941862293774e-02  6.5209841336502719e-03  1.5404857828193448e-03  4.5254367201559453e-02  2.5564908799387338e-02  1.4315868606333573e-02  6.6020006770705093e-03  7.7306265993934732e-03  4.7829501640775186e-02  2.5634955558631423e-02  1.2152496497188713e-01  2.8414400990506981e-02  3.3771082227367966e-02  1.1282220936523242e-02  5.5734514770696564e-03  3.5939314198553174e-02  1.1275854638561772e-01  2.5908688647456363e-03  4.1695460375325094e-02  1.5663153993524810e-02  4.4607797871307760e-02  1.2263584975426561e-01  9.9169131867457051e-04  -1.5351534102587687e-02  1.1123620827373969e-01  9.3577345343505980e-02  9.1161103156768356e-02  -1.3468499386257261e-02  -1.0758779531336098e-02  3.6506333070437220e-04  -1.8962342531374909e-02  -7.9565158084751557e-03  -2.2401154826743416e-02  -1.7975702971196144e-02  -6.3080080530554675e-03  -3.5456319882118397e-03  1.8225404748870338e-02  3.1776081125345899e-03  -1.9899893290164297e-02  -4.0116656020933164e-03  -2.7684751154139643e-02  -1.3674100236904284e-02  -6.9928171522159362e-03  9.4155718017435303e-03  3.3584630063174435e-02  -2.3638535594369816e-02  1.0306013257510746e-02  -1.8985699508281766e-02  4.3994975236248905e-03  -1.1550646593888591e-02  9.7427118622362523e-03  -1.0684834925581957e-02  -1.1562017398979793e-02  -1.4283914488986285e-02  -1.4577948140933194e-02  -2.5558811590384908e-02  -1.6427353860613458e-02  -2.0253610981073721e-02  9.0958837025200030e-03  -7.5863963398738075e-03  -1.2544719240498733e-02  -2.3820660155834013e-02  -1.5955979947638893e-02  1.0245739366646621e-02  -1.0532520744033652e-02  -3.1598031123597245e-03  -6.0882657929268846e-03  1.0638285330567891e-01  -9.5157693056372450e-03  -1.6043708156541544e-02  -3.3748198142049498e-03  4.2225549023628711e-02  1.0930958672104573e-02  8.1770848511633133e-04  1.1173049849793729e-01  1.2359407453689723e-01  1.2851491754550684e-01  -2.6100316617424863e-02  5.1118454662439127e-03  -3.0245999383467649e-02  7.2094320216486230e-03  -2.6920802196654683e-02  -1.8679734370241074e-02  1.2609448574745957e-01  4.2490068146995141e-03  5.0976614406157278e-03  -1.7513422702822436e-02  1.2316633165233326e-01  7.1063540378319369e-03  1.0117403149520985e-02  -8.6452887737014997e-03  1.8551651022025565e-03  5.7431720305654724e-03  4.0023935182498666e-02  -3.0752003243476912e-02  8.8128332363333547e-03  1.1679535116219246e-01  3.9053235942805999e-02  -2.2549005940064894e-02  -2.0138405275020907e-02  3.1263047921202589e-02  -8.3782899916593871e-03  6.3004549449922438e-03  6.9824075591589249e-02  6.1069679778126369e-03  -1.2206447521889497e-02  3.1517741378879970e-04  2.1039596032595099e-03  1.0922716659663063e-01  1.8788028584197543e-02  -2.3553324804516159e-02  -3.7432562015987866e-03  4.5613722629386975e-02  2.9760282441964121e-02  6.7600323996893225e-02  9.6211680619815183e-03  -4.2845107437424271e-03  3.1946760573412320e-03  6.2938514090336763e-03  1.9365775125592490e-02  -2.0895190834183193e-03  2.5270496284717222e-02  2.9137704934827185e-02  4.6549484274239723e-02  5.4219232022567870e-02  2.9050897134816667e-02  -2.7969303592378866e-02  -4.5969173564527318e-03  6.4580335534960686e-03  3.0720223598984502e-02  1.0540477733296480e-02  -5.1746030885804440e-03  4.6694602004427106e-02  3.0186488420849939e-02  5.1429887431785025e-02  4.0537654535606336e-02  1.0724611226044744e-02  3.0218556010895341e-02  -2.1058074754182272e-02  2.1207070376038015e-02  9.9457644137440987e-02  2.5195799596937976e-02  2.8646776236167029e-02  4.6511577588959983e-02  -2.0239436162350761e-02  4.5951653522974763e-02  1.2563311231751187e-01  4.2271948897652817e-02  5.5761937129985848e-03  5.6037032654679658e-02  5.2655459593877560e-02  3.9175631322375434e-02  -2.4922284075143100e-03  3.4147475769626852e-02  3.4714545016686693e-04  3.4551289944518448e-02  -9.7492367162725538e-02  -9.5578431124346205e-02  -9.5476053043966863e-02  -9.6008802819946587e-02  -9.1895439436297938e-02  -9.3133641856481153e-02  -9.4353259838440326e-02  -9.2981694273750859e-02  -8.8354344649653749e-02  -8.4573097700279529e-02  -8.7410032700223461e-02  -8.7230984657736876e-02  -8.3561905411119394e-02  -9.4642660320694141e-02  -8.0487567366043816e-02  -5.2501752783929871e-02  -4.1497838946274512e-02  -3.8570353802161061e-02  -8.2317265002263176e-02  -4.6340078022107010e-02  -4.4881264498117052e-02  -8.8461127511699322e-02  -8.1145091983680459e-02  -7.4591739072780910e-02  -5.2795612593745420e-02  -7.0696322786459390e-02  -4.7078015223314902e-02  -7.8120658117456498e-02  -6.1898909539257446e-02  -8.6438191219457033e-02  -8.0054533438341999e-02  -7.5365542580666176e-02  -5.1023189653847452e-02  -6.2199078279033142e-02  -6.9832775172789560e-02  -5.5326420232192190e-02  -6.0959053526069167e-02  -2.8751181144561391e-02  -4.1940480387148343e-02  -3.5859496110346931e-02  -8.0005951281831925e-02  -5.5597603006966513e-02  -6.8408146693332866e-02  -7.1565138316913024e-02  -7.0586739103710314e-02  -1.9304809197739723e-02  -1.9105104229132874e-02  -7.2750349779605039e-02  -7.7879629426942806e-02  -5.8984920842678312e-02  -4.5362166249112011e-02  -4.1629422413904160e-02  -4.8200173108355289e-02  -4.1653422361779761e-02  -4.6497314316986095e-02  -4.8167045819184323e-02  -4.1417644581639927e-02  -3.5673482429097653e-02  -3.0865400342713702e-02  -2.9249809675353275e-02  -7.2458893808281452e-02  -7.6313639604639827e-02  -7.7225660941620991e-02  -7.9293882465001950e-02  -8.0231689218336982e-02  -7.9271727529556621e-02  -7.6232902145427953e-02  -7.9498007740833015e-02  -7.9409714202619872e-02  -8.2448406383865400e-02  -7.5662857362792255e-02  -9.2987230353598807e-02  -1.0515281979964643e-01  -1.0715581910690331e-01  -1.1904512721278648e-01  -1.2136486221111970e-01  -1.1668867175003698e-01  -1.3151259881797589e-01  -1.3266708553080236e-01  -1.3899534773347144e-01  -1.4007797842264838e-01  -1.3448262631550462e-01  -1.3810339921171208e-01  -1.3223141525758103e-01  -1.3823778701937786e-01  -1.3159113712854753e-01  -1.2517650136007524e-01  -1.1853019205466016e-01  -1.1935792816316286e-01  -1.1197718420171056e-01  -1.1554290905387603e-01  -1.0347929340942381e-01  -1.0481066313280586e-01  -9.4774432228619615e-02  -1.3621798520811657e-01  -1.3677638115255283e-01  -9.4879707371445327e-02  -8.7767481333963601e-02  -9.7877467031991364e-02  -1.3300893697318866e-01  -7.9074053730993576e-02  -1.2514242360083713e-01  -1.0955665519081284e-01  -7.2594165073797845e-02  -8.0554712553130917e-02  -6.9030531416858804e-02  -7.6971197531781416e-02  -6.8474167049327253e-02  -7.6902367801022678e-02  -7.0846582712842887e-02  -7.9495204641343672e-02  -7.4745911047700231e-02  -8.4377924700505272e-02  -8.1164189783233046e-02  -9.2581590556249149e-02  -8.9105350334726038e-02  -1.0157451801888666e-01  -9.7456670789836164e-02  -1.1186769692214822e-01  -1.0571659558855311e-01  -1.2124795019684101e-01  -1.1204204447314980e-01  -1.2767300437377138e-01  -1.2985589981237905e-01  -1.3652828257413838e-01  -1.2993723015608291e-01  -1.3716220538616267e-01  -1.3991832891391526e-01  -1.3897896631407192e-01  -1.3967694342944789e-01  -1.2562376707459746e-01  -1.3677434985200546e-01  -1.3714629232558204e-01  -1.2875056131018134e-01  -1.1236978447785650e-01  -1.0586068214816870e-01  -1.3102694741210197e-01  -1.3271027867844767e-01  -1.3173925708575654e-01  -1.2882732717561060e-01  -1.2482451369557114e-01  -1.2805170403034752e-01  -1.2378548605137450e-01  -1.2216966110493588e-01  -1.2180160309551497e-01  -1.1477717230578689e-01  -1.1489234032227121e-01  -1.1895611362081580e-01  -1.1738445709141650e-01  -1.1497374794204247e-01  -1.1805707383328659e-01  -1.1265356062422338e-01  -1.1763195782589324e-01  -1.1733293010405005e-01  -1.2127240280267565e-01  -1.1472799803881938e-01  -1.2329429433078337e-01  -1.2248464673958842e-01  -1.2841348872545846e-01  -1.2344575722735759e-01  -1.3171905924544233e-01  -1.3057492214445526e-01  -1.3640631183115826e-01  -1.3243170847602592e-01  -1.3878142874118282e-01  -1.3703328472253543e-01  -1.4041552545655722e-01  -1.3687217534078028e-01  -1.3792879615114084e-01  -1.3719576359493260e-01  -1.2940082075326304e-01  -1.3334838939392246e-01  -1.3027023513590957e-01  -1.2403618544489299e-01  -1.2031352329078196e-01  -1.2737670537356577e-01  -1.1751044779109997e-01  -1.2275623282552432e-01  -1.1084863346755834e-01  -1.0695085179666051e-01  -1.1085164674464514e-01  -1.0934284036123214e-01  -1.2373394099530907e-01  -1.1271236480443979e-01  -1.0211661512135378e-01  -9.7926558922635645e-02  -4.9542209160115411e-02  -9.7171352199687450e-02  -1.2944963851475733e-01  -1.1488297802436351e-01  -1.1636661347930022e-01  -1.1232641131562857e-01  -1.0576147712552572e-01  -1.1463201901961502e-01  -8.9496238027826081e-02  -9.3017706599869965e-02  -8.6205532628006426e-02  -9.3737614457294019e-02  -7.9438875263044023e-02  -1.0672034571854526e-01  -1.0257109688395959e-01  -1.1101430653662339e-01  -8.6238632877499929e-02  -6.5521116577851077e-02  -1.0251546170398222e-01  -1.0049853598833527e-01  -1.1337703379717060e-01  -1.3241986997760077e-01  -1.2807553081361570e-01  -1.2784289656557410e-01  -1.2199576460404719e-01  -1.2402389643165124e-01  -1.1808531276627122e-01  -1.1841066169290518e-01  -1.2000364516907225e-01  -1.1787391233658155e-01  -1.1502397465355808e-01  -1.1786351328227708e-01  -1.1318829947427718e-01  -1.1558121285480666e-01  -1.1624139410843494e-01  -1.1901096294081391e-01  -1.1203403326950898e-01  -1.1824746800156374e-01  -1.1970653754189839e-01  -1.2392506857282863e-01  -1.1766494966893795e-01  -1.2582278988335485e-01  -1.2606440303599806e-01  -1.3176916274989595e-01  -1.2604610580557654e-01  -1.3390714422842298e-01  -1.3430706133214609e-01  -1.3814267278983733e-01  -1.3315055492441896e-01  -1.3741970505499607e-01  -1.3788324056174731e-01  -1.3609042205843030e-01  -1.3344291024613386e-01  -1.2988721574548254e-01  -1.3042267485040249e-01  -1.2571910400495434e-01  -1.1952766777090956e-01  -1.1540817218895953e-01  -1.2294329026781893e-01  -1.1654068770597194e-01  -1.1509539328420844e-01  -1.1326299316532033e-01  -1.0725559154260547e-01  -1.0619003876520218e-01  -1.0408248104364519e-01  -1.0537239744815315e-01  -9.7951703695725006e-02  -9.4246877002416407e-02  -9.4066449064745247e-02  -8.8621650872900956e-02  -1.0480776262805432e-01  -1.0196418636044922e-01  -1.1220503019610144e-01  -9.8619962419969606e-02  -9.0297792873144045e-02  -8.6235504701502860e-02  -1.1738287560024448e-01  -8.9699831869846286e-02  -9.9087680245566898e-02  -8.4530097744438287e-02  -1.0141429788378523e-01  -9.7892662627932808e-02  -8.8534459634910662e-02  -1.0745395261907723e-01  -8.3283514356968166e-02  -7.7261502339550134e-02  -8.1078101134930317e-02  -7.9265295575746311e-02  -7.8182803118940242e-02  -1.0715502432677033e-01  -8.9374900483078015e-02  -9.5934377001942059e-02  -1.0229288044284410e-01  -1.0657100550337870e-01  -9.8394344950