<?xml version="1.0"?>
<VTKFile type="UnstructuredGrid"  version="0.1"  >
<UnstructuredGrid>
<Piece  NumberOfPoints="1277" NumberOfCells="2456">
<Points>
<DataArray  type="Float64"  NumberOfComponents="3"  format="ascii">0 0 0  0 1 0  1 1 0  1 0 0  1.1 -0.1 0  -0.1 -0.1 0  1.1 1.1 0  -0.1 1.1 0  0.5084520790001693 0.506616120507366 0  0.63102905157663 0.7278561732869117 0  0 0.9499999999997918 0  0 0.8999999999995836 0  0 0.8499999999996529 0  0 0.7999999999999998 0  0 0.7500000000003466 0  0 0.7000000000006934 0  0 0.6500000000010401 0  0 0.6000000000013869 0  0 0.5500000000017335 0  0 0.5000000000020587 0  0 0.4500000000018723 0  0 0.4000000000016644 0  0 0.3500000000014564 0  0 0.3000000000012483 0  0 0.2500000000010403 0  0 0.2000000000008322 0  0 0.1500000000006241 0  0 0.100000000000416 0  0 0.05000000000020799 0  0.04999999999989965 0 0  0.09999999999981467 0 0  0.1499999999997036 0 0  0.1999999999995579 0 0  0.2499999999994121 0 0  0.2999999999992664 0 0  0.3499999999991206 0 0  0.3999999999989749 0 0  0.4499999999988292 0 0  0.4999999999986943 0 0  0.5499999999988151 0 0  0.5999999999989468 0 0  0.6499999999990784 0 0  0.69999999999921 0 0  0.7499999999993417 0 0  0.7999999999994734 0 0  0.8499999999996051 0 0  0.8999999999997368 0 0  0.9499999999998684 0 0  1 0.04999999999989965 0  1 0.09999999999981467 0  1 0.1499999999997036 0  1 0.1999999999995579 0  1 0.2499999999994121 0  1 0.2999999999992664 0  1 0.3499999999991206 0  1 0.3999999999989749 0  1 0.4499999999988292 0  1 0.4999999999986943 0  1 0.5499999999988151 0  1 0.5999999999989468 0  1 0.6499999999990784 0  1 0.69999999999921 0  1 0.7499999999993417 0  1 0.7999999999994734 0  1 0.8499999999996051 0  1 0.8999999999997368 0  1 0.9499999999998684 0  0.9499999999997918 1 0  0.8999999999995836 1 0  0.8499999999996529 1 0  0.7999999999999998 1 0  0.7500000000003466 1 0  0.7000000000006934 1 0  0.6500000000010401 1 0  0.6000000000013869 1 0  0.5500000000017335 1 0  0.5000000000020587 1 0  0.4500000000018723 1 0  0.4000000000016644 1 0  0.3500000000014564 1 0  0.3000000000012483 1 0  0.2500000000010403 1 0  0.2000000000008322 1 0  0.1500000000006241 1 0  0.100000000000416 1 0  0.05000000000020799 1 0  -0.1 1.05000000000004 0  -0.1 1.000000000000079 0  -0.1 0.9500000000001624 0  -0.1 0.9000000000003032 0  -0.1 0.850000000000444 0  -0.1 0.8000000000005848 0  -0.1 0.7500000000007256 0  -0.1 0.7000000000008665 0  -0.1 0.6500000000010508 0  -0.1 0.6000000000012352 0  -0.1 0.5500000000014196 0  -0.1 0.500000000001539 0  -0.1 0.4500000000014195 0  -0.1 0.4000000000013 0  -0.1 0.3500000000011588 0  -0.1 0.3000000000010178 0  -0.1 0.2500000000008986 0  -0.1 0.2000000000007579 0  -0.1 0.1500000000006174 0  -0.1 0.1000000000005272 0  -0.1 0.05000000000040083 0  -0.1 2.671196597248127e-13 0  -0.1 -0.0499999999998666 0  -0.0500000000000906 -0.1 0  -1.730560139634463e-13 -0.1 0  0.04999999999975802 -0.1 0  0.09999999999961506 -0.1 0  0.1499999999994613 -0.1 0  0.199999999999302 -0.1 0  0.2499999999991446 -0.1 0  0.2999999999990088 -0.1 0  0.3499999999988296 -0.1 0  0.3999999999986936 -0.1 0  0.4499999999985143 -0.1 0  0.4999999999984002 -0.1 0  0.5499999999985247 -0.1 0  0.5999999999986493 -0.1 0  0.6499999999987955 -0.1 0  0.6999999999989417 -0.1 0  0.7499999999990659 -0.1 0  0.7999999999992116 -0.1 0  0.8499999999993573 -0.1 0  0.8999999999994526 -0.1 0  0.949999999999584 -0.1 0  0.9999999999997226 -0.1 0  1.049999999999861 -0.1 0  1.1 -0.0500000000000906 0  1.1 -1.730560139634463e-13 0  1.1 0.04999999999975802 0  1.1 0.09999999999961506 0  1.1 0.1499999999994613 0  1.1 0.199999999999302 0  1.1 0.2499999999991446 0  1.1 0.2999999999990088 0  1.1 0.3499999999988296 0  1.1 0.3999999999986936 0  1.1 0.4499999999985143 0  1.1 0.4999999999984002 0  1.1 0.5499999999985247 0  1.1 0.5999999999986493 0  1.1 0.6499999999987955 0  1.1 0.6999999999989417 0  1.1 0.7499999999990659 0  1.1 0.7999999999992116 0  1.1 0.8499999999993573 0  1.1 0.8999999999994526 0  1.1 0.949999999999584 0  1.1 0.9999999999997226 0  1.1 1.049999999999861 0  1.05000000000004 1.1 0  1.000000000000079 1.1 0  0.9500000000001624 1.1 0  0.9000000000003032 1.1 0  0.850000000000444 1.1 0  0.8000000000005848 1.1 0  0.7500000000007256 1.1 0  0.7000000000008665 1.1 0  0.6500000000010508 1.1 0  0.6000000000012352 1.1 0  0.5500000000014196 1.1 0  0.500000000001539 1.1 0  0.4500000000014195 1.1 0  0.4000000000013 1.1 0  0.3500000000011588 1.1 0  0.3000000000010178 1.1 0  0.2500000000008986 1.1 0  0.2000000000007579 1.1 0  0.1500000000006174 1.1 0  0.1000000000005272 1.1 0  0.05000000000040083 1.1 0  2.671196597248127e-13 1.1 0  -0.0499999999998666 1.1 0  0.6572771147741114 0.7226258455612012 0  0.682764295901517 0.7145439943444609 0  0.7069486968402806 0.7032826919057308 0  0.7293474163260109 0.689022173880075 0  0.7495408758479354 0.6719563128596678 0  0.7656929975248351 0.6514007505088958 0  0.7773397777788978 0.6283625323364962 0  0.7867108599354479 0.6045254142330417 0  0.7935879500203874 0.579971357962015 0  0.7977526355028883 0.5549500350958445 0  0.7997173072282174 0.5298104223593347 0  0.7994946781995826 0.5047106625102122 0  0.7971057744204942 0.4798138871189025 0  0.7925190974533572 0.4552668189769776 0  0.7857734612136654 0.4312248567703335 0  0.7767700837943132 0.4079452152389716 0  0.7656312240440857 0.3855187745216565 0  0.7524835810068341 0.3640640000028053 0  0.7373072840016062 0.3438053260001864 0  0.7201706775454791 0.324841292651646 0  0.7007924673284153 0.3075014778599509 0  0.6796223142659195 0.2920118963817458 0  0.6566021721007725 0.2790321583480909 0  0.6321570955386042 0.2688723306963953 0  0.6062213964064053 0.2629786460072069 0  0.579777841859536 0.2600881893915822 0  0.5531138610153991 0.2595469766369165 0  0.5264927887472468 0.2608413298363533 0  0.5000526916850619 0.263783245196514 0  0.4737364931538171 0.2676077265674303 0  0.4476482252867586 0.2723252509605938 0  0.4218090435754911 0.277937551362669 0  0.3966501912460864 0.284677229030751 0  0.372514131298608 0.2927776118976279 0  0.3490758179467365 0.3020456555682193 0  0.3266676971035433 0.3124505748761922 0  0.3052526316686127 0.3243719584888822 0  0.2849740674409519 0.3379179976684246 0  0.2658982292507519 0.3530381813811161 0  0.2479833892167381 0.3696435533375307 0  0.2313672531362134 0.3876970366979066 0  0.2157537707284748 0.4070369794574605 0  0.2010583318345498 0.4276326198444897 0  0.1876368030825741 0.4495553306226635 0  0.1767151614462737 0.4731848314225029 0  0.1690130043480614 0.4983310382427888 0  0.1682259646500966 0.5249032224567485 0  0.1736488785602205 0.5511122164894211 0  0.1847718184240201 0.5752009289943926 0  0.2006245178261445 0.5962706007032642 0  0.2181991918524108 0.6155557581029756 0  0.2371688404573709 0.6330789390936871 0  0.2569285020107374 0.6491883806972998 0  0.2774200934738689 0.6640536601052029 0  0.2988761131866163 0.6773897229513607 0  0.3213002955627867 0.6891138052226211 0  0.3446626791400511 0.6991550386584776 0  0.3686903452527877 0.7079200962960072 0  0.3934625689367727 0.7153901465294306 0  0.4189659674216919 0.7213784334814766 0  0.444879816655063 0.7260667704350861 0  0.4711225338327062 0.7296522721242822 0  0.4975823945160091 0.7323120085027262 0  0.5242254647009216 0.7338885055573061 0  0.5509682240778155 0.7343973200683223 0  0.5778083628926588 0.7339101548719573 0  0.6045652835169265 0.7316963359339799 0  0.2604554989196689 0.6226901512074289 0  0.2416246849008855 0.4137673042000995 0  0.7497868642416483 0.6321773868158158 0  0.7754947645729475 0.5406341975733241 0  0.6375124250701957 0.7064576524526619 0  0.6137092578219929 0.2854902024672735 0  0.7115977780666034 0.3467969508194446 0  0.5177864070186681 0.2813248838427896 0  0.2929248639945854 0.3639386913130536 0  0.3496243121922011 0.3254579015331536 0  0.4453853577753801 0.299120921896613 0  0.321102967777889 0.6640221702629909 0  0.3879163748417631 0.6914667733898607 0  0.462255007856143 0.7063444325106222 0  0.5386641206817301 0.714185545652004 0  0.7580414885866662 0.4256505193103235 0  0.1983149669858834 0.5533717288174181 0  0.2016468125587252 0.4731558800381012 0  0.7053183237530953 0.6794015826438197 0  0.3946337820266351 0.3085906966447346 0  0.7701708046156306 0.4720415638312056 0  0.5893290543734404 0.713044144082062 0  0.7669552738848876 0.5852491432250068 0  0.7376808649501625 0.3841788535520886 0  0.676763559985983 0.3140988921712799 0  0.5697281854261391 0.277360574177987 0  0.225092872063311 0.5914882694221175 0  0.1877847167613462 0.511065083445883 0  0.488332667198368 0.7100370838237422 0  0.4808771033093744 0.6865727186434324 0  0.4537412689782463 0.682655726659844 0  0.4729449385103923 0.6625708260147252 0  0.4431675848261121 0.6582581178508407 0  0.4592942523154395 0.6407250267663895 0  0.4849879100108824 0.6369255714672352 0  0.4330098011740995 0.6326685091945913 0  0.4550146782328973 0.6077003346499207 0  0.4129834158354892 0.6035274032588379 0  0.5037153992133457 0.6025645146976066 0  0.5440944222744877 0.6330369630377239 0  0.5506472259438451 0.5856571238720315 0  0.585457984864067 0.6211099426992666 0  0.5966143181285312 0.5737600702034302 0  0.6300784046575948 0.6087733509507286 0  0.6423346343720812 0.5609081003658999 0  0.6776766035695909 0.591105147276775 0  0.6898934250845506 0.5538026663420788 0  0.6548799582836967 0.5248483286187633 0  0.6955662405470788 0.5225153281811741 0  0.6731506846298332 0.4908328580351031 0  0.6257997032545051 0.4979875881724243 0  0.6386155533710712 0.4613237648956008 0  0.6845443310539008 0.4499465756329621 0  0.6552698357428862 0.4210307665772127 0  0.608692612526278 0.430829445060405 0  0.6222990994817694 0.3952583470460727 0  0.5793876238412742 0.4010595373660302 0  0.5966693455026051 0.3638424422601601 0  0.5493454234456568 0.3654610598306743 0  0.5362435756183975 0.4049026051282513 0  0.5048507357235631 0.3680807585205755 0  0.4908124160193577 0.4101280307629055 0  0.4587912089567264 0.3729969753158502 0  0.4445963818020582 0.4141690954066721 0  0.6629006353360
[...]
<PointData  Scalars="u"> 
<DataArray  type="Float64"  Name="u"  format="ascii">-4.7598226086201089e-19  -2.3090772144162097e-18  -2.1832647900736221e-17  9.3973289163685619e-19  -5.0943518109881572e-20  1.1735630397638661e-19  -3.5309263832410833e-19  1.6718675597579766e-19  1.3468626707508766e-01  -6.0477720566901538e-02  -2.3195795103943406e-18  -2.4957510875407249e-17  -5.4278037796734134e-18  -2.0350327610525083e-17  -1.7777404765085759e-17  -3.0891027924156464e-17  -1.2919556592756608e-17  6.5343433979739410e-17  -4.1623740782536205e-19  -3.5533100511326756e-17  9.4518842014137396e-18  -1.2547178657895072e-17  -1.5957013780877738e-17  3.9071874502532481e-17  1.6258145093805909e-17  -4.8246584103018263e-18  1.2167530653918094e-17  -2.2246161951817261e-17  2.4072385798449569e-17  -1.7052339689665440e-17  -2.0935717859147559e-17  -3.5314591733037807e-18  -3.0723485638186307e-17  -1.3921382672135764e-17  -2.9056553981162742e-17  5.3218730252434676e-17  -2.3012440309033133e-17  -5.6040873215494152e-17  4.5348260243240039e-17  -7.4386099487904249e-17  -7.2909995057130920e-17  -8.0261293430961179e-17  -9.8589982873487854e-18  5.4715457151914341e-18  -5.4997975908790437e-17  -2.8618432671039751e-17  -2.2636554659828720e-17  -4.4161342511163104e-18  1.5064657882343555e-17  3.9394437206311892e-17  6.1014222015125740e-19  -1.6393986549021868e-16  1.9854483097991004e-16  3.5988673581139660e-18  -1.6266950239305371e-16  -2.2216176885798247e-17  1.6974364322842773e-16  -1.2637036663577199e-16  -4.1031889135366355e-16  -4.1998756789396488e-17  1.4961719821435402e-16  1.1206462408008018e-16  -2.1499527048729161e-17  1.8919394070662709e-16  1.1844094632279060e-17  -1.1014785938037541e-17  -8.7761286805040140e-17  -5.5157142652465593e-19  -3.0652651829854285e-17  -3.5054650015471299e-17  1.2532758704546135e-16  -1.2569289201511007e-17  2.1205254607741668e-18  1.6284333946785620e-17  -2.4825420036989947e-16  1.2225477113973284e-16  2.1174044383594510e-16  -9.9704027599844559e-17  7.6220454826929933e-17  3.5277749455763313e-16  3.1999126967028816e-16  -1.7224970328290211e-16  7.1607259544088607e-17  9.4597600773751991e-18  7.1645767146103564e-17  7.1923898196489022e-17  -1.2065596029677344e-19  8.2940579661742161e-20  -1.3023799447578344e-18  -2.2729318710450706e-18  -1.9239548691616372e-18  -1.8830848151547537e-18  -3.7056811388185108e-18  -6.3060068782580369e-18  2.0918407278985457e-18  8.3596552752051037e-18  9.3112365867453554e-19  -4.4675469233352567e-18  -9.6496299349064358e-19  -1.3110428798341900e-18  -1.2066066946309319e-18  2.0134537497669802e-18  2.9756333104820312e-18  8.2092390529662263e-19  -6.6123004440230994e-19  4.4584604331124806e-19  7.2183166442345042e-19  1.2723034977921536e-18  -5.3598426832349640e-19  1.5523649690326243e-19  -2.2218658366245880e-19  -2.0209456280843195e-18  -3.3989437342328344e-18  -2.2224028356244064e-18  -2.7995756683428310e-18  -4.5631862321022066e-18  1.1261168335315751e-18  5.4308169933737962e-18  -3.8852487803639015e-18  -4.2114386122531830e-18  -7.0879739147806648e-19  -6.9644846857080314e-18  -1.2692906950969632e-17  -1.0279781888434049e-17  2.1722023980434453e-19  8.7069043142783010e-19  -6.6750225677018980e-18  -5.3902233448926097e-18  -2.4561978073914952e-18  -6.9148373261131594e-19  1.3672321298625597e-19  3.1174404235775112e-20  1.4218717434504760e-21  2.5513546247674048e-19  -8.5850835974685358e-19  -1.2514586786373783e-18  -1.8766957263186899e-18  -1.4951845379633348e-19  4.3811193349230781e-18  -8.5297954304664633e-19  -7.0904396814967787e-18  -3.9816189512474497e-18  -1.3495145510573847e-18  -1.3842028023593023e-18  -5.1101499269421823e-18  -3.3756267780664430e-18  4.7087756449171252e-18  -9.1014671923170873e-19  -2.8086368258541572e-18  2.3218755381533824e-18  1.4492198004814466e-18  -1.5384793441049448e-18  -2.1613959179487164e-18  1.4078110282478056e-19  3.9940560883184009e-19  1.0218623628561717e-19  8.5120204869302961e-19  -3.2070183527227134e-19  -1.7517667977224042e-18  -4.2119621097966649e-18  -5.5664480349937037e-18  -2.2788129002343706e-18  5.1828093532380339e-19  7.1971716577871902e-19  -2.0872556643637243e-18  -8.5728662753559887e-20  4.2890052792696366e-20  -1.2189397569565327e-18  -3.3906226983603647e-18  3.1959526036433655e-18  6.8511609388813289e-18  -2.6658459444938219e-18  -1.8876223476109407e-18  7.0167656821164076e-19  -2.2639497116448175e-19  2.2738053285065160e-19  2.5808631032881288e-19  -2.4524236947969657e-19  -6.4497454939230925e-02  -6.7625922322955057e-02  -6.9753827143506072e-02  -7.0149818103489303e-02  -6.8899958120232030e-02  -6.5314787946711278e-02  -6.0150549270417138e-02  -5.5344767896070589e-02  -5.1149718888827370e-02  -4.7905757974966372e-02  -4.5901649703432551e-02  -4.5188623882245510e-02  -4.5784223079661568e-02  -4.7407413780343556e-02  -4.9969220649594970e-02  -5.3204291526808813e-02  -5.6752299049677164e-02  -6.0271994692808556e-02  -6.3649588420827116e-02  -6.6539771595719763e-02  -6.8432800409124084e-02  -6.9496975398131558e-02  -6.9477553513849863e-02  -6.8348148341775869e-02  -6.5434605007609600e-02  -6.2022769587168708e-02  -5.8798818671895695e-02  -5.6151876302730525e-02  -5.4248898320163379e-02  -5.3456055417591547e-02  -5.3759964537421136e-02  -5.5135706465797546e-02  -5.6831305254679824e-02  -5.8462083527219502e-02  -6.0305798100939292e-02  -6.1362466365303153e-02  -6.2294848591893479e-02  -6.2089634814145228e-02  -6.1052566121728435e-02  -5.9222278779898330e-02  -5.6929664252026710e-02  -5.4695866037144790e-02  -5.2860969337634262e-02  -5.1744375987118341e-02  -5.1122503474669262e-02  -5.1353540789012893e-02  -5.2280155308279994e-02  -5.4035688375395949e-02  -5.5909253812842646e-02  -5.7386859744006716e-02  -5.8634256109982338e-02  -5.9603555007595621e-02  -6.0343296127240653e-02  -6.0853412943700058e-02  -6.0764580045290270e-02  -5.9979974446619996e-02  -5.8322363419991870e-02  -5.6467155048610426e-02  -5.4486747631152473e-02  -5.2284105968610009e-02  -5.0548648671948679e-02  -4.9408285931819479e-02  -4.9163158232818707e-02  -4.9720353928167593e-02  -5.1371295416810882e-02  -5.4087297915541802e-02  -5.7107225553107988e-02  -1.6441550789539783e-02  -1.2754795521082224e-02  -2.3177517816426046e-02  -8.2966266063826868e-03  -2.0031222906260474e-02  -2.4516089032929584e-02  -2.2298369395782468e-02  -1.2367668120901320e-02  -1.2974539646528652e-02  -1.4222011953400707e-02  -3.1285453371726925e-03  -1.4053383836982713e-02  -9.0540062109142894e-03  -3.0983977659865612e-03  -6.5635509199861684e-03  -1.0068959567750611e-02  -2.2471822465224320e-02  -1.7418047289159508e-02  -2.8157880488829355e-02  -1.0129524792232305e-02  -5.6254723415868034e-03  -1.2340105732545271e-02  -1.3072607827924857e-02  -1.5535100686846614e-02  -2.7083208008779617e-02  -2.0975619428330525e-02  -2.0128883951347314e-02  -2.3114877398762064e-02  -3.3501893788877922e-03  2.1315733566169059e-02  2.0823969293211907e-02  4.6076946676186760e-02  4.4268054036214602e-02  6.6153988681628861e-02  7.4074110237007787e-02  6.7369415552985007e-02  9.2479831505217824e-02  8.4100845507208338e-02  1.0151661232025218e-01  7.7546031966988879e-02  1.0855977863498899e-01  7.8818955252278070e-02  1.0308751400960893e-01  7.1354324174374234e-02  8.8363941957074837e-02  5.5831091397038290e-02  6.1872510169595767e-02  8.9473889877716969e-02  6.3396207592163134e-02  7.8884585195269238e-02  1.0585616716547581e-01  9.4002242973479117e-02  6.2569057610771278e-02  6.9561647717454225e-02  9.7285686591273360e-02  7.2108533680890735e-02  9.1682220157967870e-02  6.0213929350569559e-02  7.3294938699487319e-02  1.0258123542597196e-01  7.8161808773443281e-02  1.0670639247112815e-01  7.6889576388801381e-02  1.0198956934430893e-01  4.2319065108395275e-02  6.9057801194204946e-02  8.6101932947830265e-02  4.3443903648397383e-02  6.1185838239538409e-02  6.8514233229114707e-02  9.8773872143602934e-02  8.2501984612714963e-02  1.0196218111202077e-01  8.2170583432255348e-02  6.3580629308889386e-02  6.0612288051469801e-02  7.1857548461157092e-02  4.9574245027513293e-02  5.4293436442708037e-02  3.9140320973897628e-02  1.1577972582958733e-01  7.4767095603689521e-02  5.1522849704569891e-02  1.1790999550934431e-01  4.2186519198137054e-02  2.5990448200483029e-02  1.4992647074686508e-02  1.9944686511598281e-02  5.2808620477219827e-02  4.2138657751858932e-02  5.7952205367811829e-02  4.9285991549834186e-02  1.7182920921643217e-02  7.0275636080010917e-02  3.5195616923288105e-02  4.0808808224513167e-02  3.4759894980077685e-02  3.3581934918817613e-02  1.9767959414656845e-02  1.8242820419940863e-02  3.7424391362050391e-02  2.2763185440560142e-02  5.0597979404134942e-02  2.6508310694193599e-02  2.9385525353244620e-02  2.3033911099531065e-02  3.2673848353650246e-02  1.4734103136033275e-02  1.1584165512791186e-01  4.7363651929547293e-02  1.9946838633344517e-02  1.9730883219934554e-02  1.1718501858480376e-02  2.8290899907721202e-02  1.5892000090425715e-02  2.4279696062828805e-02  5.1088092946412839e-02  2.7940678256698215e-02  2.4061865422265336e-02  9.3024102423908163e-03  1.1720290300387615e-02  1.7893495067895983e-02  2.5110894633897651e-02  -8.9570616963111672e-03  5.6780535503496730e-02  2.1669846451236898e-02  3.7253934782661285e-02  9.2721688556066870e-03  -2.0768292313427354e-03  4.9841224660578248e-02  3.0074559547532305e-02  1.9354262567323231e-02  2.8226366766917806e-03  5.5271737363486780e-03  5.0427631831746998e-02  2.7570078364433443e-02  1.2404747905067506e-01  2.7685320900738102e-02  3.7539568060027416e-02  1.4539113927596698e-02  2.3270579112837056e-03  4.0504506641249514e-02  1.1333533098987766e-01  2.5949474082342461e-03  4.0694225614878683e-02  1.4997893282915901e-02  4.6381205209492501e-02  1.2572259589920176e-01  4.1618176222460645e-03  -9.2176164043218153e-03  1.1492444497761264e-01  9.3305913663216930e-02  9.1590675626565712e-02  -1.4737136183398626e-02  -4.4938909686269186e-03  -1.4569724757729323e-03  -1.0175907696166385e-02  -8.7335628898721172e-03  -1.6587585779563700e-02  -8.9119255786052447e-03  -6.0861479623532761e-03  -3.3048800893665320e-03  1.9372486608636767e-02  3.8978562223870770e-03  -1.2129377294499784e-02  -8.8477859340771025e-03  -1.8463124135014677e-02  -9.6025819442930108e-03  -1.0050637023381145e-02  1.3649241833528527e-02  3.7257655952532637e-02  -1.6203666886203980e-02  1.5220878620168622e-02  -1.0072507998513270e-02  1.0860647127990659e-02  -7.4895752346083155e-03  1.3869226052199403e-02  -9.6640070317205121e-03  -7.0473782756810483e-03  -6.6391108701826249e-03  -9.3472275514548484e-03  -2.6120097572427142e-02  -1.1037161347235281e-02  -1.8371748562148144e-02  1.3918384035276832e-02  -5.5855866753001596e-03  -9.4615846834794730e-03  -1.9546320543378081e-02  -1.4263505164846021e-02  8.8707715170456281e-03  -1.3794683867385957e-02  -8.1629734822197542e-03  -5.0418984562703795e-03  1.1008807001187122e-01  -1.5388661547514839e-02  -1.5736982365177010e-02  2.2436427712290059e-04  4.5142477569880393e-02  8.3724964486372490e-03  2.0466525801373348e-03  1.1480361423662522e-01  1.2551721596116663e-01  1.3002729639940139e-01  -2.4459824931872685e-02  1.2162145149241566e-02  -3.0750376611095663e-02  8.5923556739591640e-03  -2.9354368584683804e-02  -1.7690456789149482e-02  1.2912404052920787e-01  9.5479045628316002e-03  6.6679718848445559e-04  -2.0125507011044475e-02  1.2564658897498626e-01  1.2636030966414613e-02  6.4914219321342065e-03  -1.3235630027921653e-02  7.7136802179754195e-03  1.0250248199019426e-02  4.2290051248405368e-02  -3.1000317539665794e-02  1.5413310813879701e-02  1.2039390208920167e-01  4.2735250761670868e-02  -2.3018457344199814e-02  -2.4967277857354652e-02  3.5396771291225190e-02  -9.3477547567293508e-03  7.6853593895064706e-03  7.2589741451862977e-02  9.7461609571745413e-03  -1.2089316239360258e-02  7.0112224453651130e-03  4.7218033552020571e-03  1.1069825481002564e-01  2.2004989190794653e-02  -1.8376158874851292e-02  -1.2399057180119354e-03  4.5539355442616107e-02  2.8175733050008124e-02  6.9137241770792265e-02  8.2587675128638158e-03  -4.2920732115442764e-03  9.6983368261286639e-03  7.3995578467081075e-03  1.9601802133510569e-02  2.7543293765108765e-03  2.9993579597898640e-02  3.3725338552774334e-02  5.1058106292162425e-02  5.6947375373501079e-02  3.1878862864152487e-02  -3.2548161201088992e-02  -2.1235482626965921e-04  1.1181151995967586e-02  3.2591755578287661e-02  1.2455799037403350e-02  -3.9187105745117270e-03  4.8742001951909454e-02  3.0888594349889643e-02  5.2330548945111334e-02  4.3888198833253983e-02  1.3637915862233311e-02  3.5147908348467712e-02  -2.7861132099500696e-02  2.1607120564540682e-02  1.0048343741369500e-01  2.7177100045616985e-02  3.1052179379692572e-02  4.8824512769823719e-02  -2.4704434468908295e-02  4.8373028343576568e-02  1.2731507002155235e-01  4.5062784801133730e-02  7.0727089601638916e-03  5.9274218952165482e-02  5.5776808437298736e-02  4.1219639037285018e-02  -2.1567784184383415e-03  3.8542992271549739e-02  7.3273515595477243e-03  3.8027052042782429e-02  -8.9622509347860674e-02  -8.7658841102624244e-02  -9.4133401375480763e-02  -9.5662853625646069e-02  -9.1365964939248409e-02  -8.6832419520375140e-02  -8.5761107229274117e-02  -9.2282055722741771e-02  -8.3344384396139864e-02  -7.8981889684975506e-02  -8.4243659099805038e-02  -8.3571315425592471e-02  -8.2516552328582057e-02  -9.6491321830411078e-02  -7.8940594544144177e-02  -4.5348244522796552e-02  -4.3641445068749195e-02  -4.7844307156126357e-02  -8.0853198629268777e-02  -5.0880453442362361e-02  -5.0773896012814901e-02  -9.3235381255999270e-02  -8.6674844694746594e-02  -7.2356152622926315e-02  -5.2937234924737488e-02  -6.8901858083937506e-02  -4.5292053093686190e-02  -8.2451753362363406e-02  -6.0426048527729974e-02  -8.5207169419843576e-02  -7.8813008473859983e-02  -7.4372136283436266e-02  -5.4193344902296492e-02  -5.2767112042415798e-02  -6.7923611030996825e-02  -6.0517566732482306e-02  -5.3830546277440688e-02  -3.7012557725418962e-02  -4.3192330822972413e-02  -3.6984456901425815e-02  -7.6970191404081387e-02  -5.3761597143063514e-02  -6.3461075110484433e-02  -7.0879663780608046e-02  -6.8606382205564448e-02  -2.8589383882607476e-02  -2.4748525118204603e-02  -7.1946775741578858e-02  -7.1663706023298357e-02  -5.3411100055487312e-02  -4.7477985716824420e-02  -4.7683294490693411e-02  -4.0360557581955142e-02  -3.8520640977968895e-02  -4.7397899410095930e-02  -3.6096754115011093e-02  -4.3505608968863942e-02  -4.2660715995185221e-02  -2.7035732063480086e-02  -2.9627799672524806e-02  -7.0897310907027708e-02  -7.2729917655931620e-02  -7.2214265489762064e-02  -7.2146004625141355e-02  -7.4993922382911429e-02  -7.0317245509268322e-02  -6.5756825733734897e-02  -7.2855181338024502e-02  -6.8974808321152464e-02  -7.4147842853616072e-02  -7.4692678562726322e-02  -9.6436582303868409e-02  -1.0641537468995262e-01  -1.0738253978060888e-01  -1.1856463392359395e-01  -1.2042539802122264e-01  -1.1665402427039362e-01  -1.2993011203205218e-01  -1.3125545413973802e-01  -1.3704316060373548e-01  -1.3878933310968655e-01  -1.3346450292633361e-01  -1.3771311645246964e-01  -1.3213331744275550e-01  -1.3741346528197632e-01  -1.3244941085415288e-01  -1.2662462812353698e-01  -1.2104366976375384e-01  -1.2105452229582142e-01  -1.1542856890039078e-01  -1.1743394131058428e-01  -1.0768622359763289e-01  -1.0655929008448892e-01  -9.9285208102685818e-02  -1.3366089591420513e-01  -1.3396559606724351e-01  -9.6911857933202977e-02  -9.1924452302147061e-02  -1.0248802162165752e-01  -1.2912504866953789e-01  -8.5870747830335312e-02  -1.2404437955537480e-01  -1.0937007904788061e-01  -7.9217935807036038e-02  -8.4574326957979923e-02  -7.4878970440381429e-02  -8.0188809389414389e-02  -7.3138912058691094e-02  -7.8833475536953967e-02  -7.4106130090634117e-02  -8.0344921144558684e-02  -7.6553284044674597e-02  -8.4419239276607327e-02  -8.1621032889597434e-02  -9.1579000410729208e-02  -8.8300644141955043e-02  -9.9759644576809636e-02  -9.5539365804821100e-02  -1.0916273604711950e-01  -1.0280355207660458e-01  -1.1763509221823922e-01  -1.0822245537517949e-01  -1.2313046117981284e-01  -1.2583968816391750e-01  -1.3134225691743595e-01  -1.2439411174924291e-01  -1.3072500203820384e-01  -1.3410227564318475e-01  -1.3163659661344415e-01  -1.3322282398530905e-01  -1.1901743384173911e-01  -1.2860261352063315e-01  -1.3009545581736429e-01  -1.1994828558295602e-01  -1.0695433816946731e-01  -9.9567727887118179e-02  -1.2208069391665087e-01  -1.2535642813043563e-01  -1.2727325815740664e-01  -1.2334968906149713e-01  -1.1941359468741347e-01  -1.2067834495678736e-01  -1.1813501745396884e-01  -1.1502790348829312e-01  -1.1637857399343109e-01  -1.1072613816280183e-01  -1.1122043656755248e-01  -1.1430422952024026e-01  -1.1414127369810752e-01  -1.1156068193747527e-01  -1.1584988731920226e-01  -1.1016055606119386e-01  -1.1597288215714747e-01  -1.1664329021920007e-01  -1.2100547596476914e-01  -1.1589255439771617e-01  -1.2450038555835923e-01  -1.2155709844114392e-01  -1.2890792893344710e-01  -1.2608591518149961e-01  -1.3351382403058082e-01  -1.2981432610525989e-01  -1.3686144931571109e-01  -1.3511001752834845e-01  -1.4012298818006785e-01  -1.3598648751435993e-01  -1.4039406362472298e-01  -1.3867496804804794e-01  -1.3858375173060686e-01  -1.3612519575370824e-01  -1.3132812901519489e-01  -1.3304954721287407e-01  -1.2839541678151542e-01  -1.2269677389817192e-01  -1.1751951996915921e-01  -1.2436148660969931e-01  -1.1756468464733663e-01  -1.2584953554097464e-01  -1.1357840112893229e-01  -1.0473347422489682e-01  -1.0802576328294476e-01  -1.0502976189604343e-01  -1.1989827488462726e-01  -1.0902102051565692e-01  -9.7144146861927710e-02  -9.1473304559657381e-02  -5.5351853926417179e-02  -9.3580291706747656e-02  -1.2704568889509735e-01  -1.1679330165878034e-01  -1.0747687154421827e-01  -1.0449748070787968e-01  -1.0317096078493235e-01  -1.1103092458725582e-01  -8.6661136258616697e-02  -8.5835253431974845e-02  -8.5067061733303306e-02  -9.6032492501217787e-02  -8.0440733455540744e-02  -1.0174802844131457e-01  -1.0293148295756167e-01  -1.1020294235502576e-01  -7.9394054102314024e-02  -6.6442683755659773e-02  -9.9774049377194474e-02  -9.7889893473300182e-02  -1.0948034776960032e-01  -1.2928159276280063e-01  -1.2311749048670721e-01  -1.2448305397737879e-01  -1.1614443946985341e-01  -1.1972894047856988e-01  -1.1679000471637715e-01  -1.1641558863740602e-01  -1.1537496763524982e-01  -1.1597910809509308e-01  -1.1082474437287831e-01  -1.1589286672783063e-01  -1.1280920322426731e-01  -1.1556918496781721e-01  -1.1546988474497528e-01  -1.1986529120202258e-01  -1.1294065589183133e-01  -1.1975754002306938e-01  -1.2237501202407637e-01  -1.2713272411907878e-01  -1.1894409028519271e-01  -1.2853677042669698e-01  -1.3137232066598675e-01  -1.3596581101818958e-01  -1.3335237495581087e-01  -1.4025299382446391e-01  -1.3810434127516610e-01  -1.4275099174688868e-01  -1.4073955927528747e-01  -1.4376285246854040e-01  -1.4151240684483971e-01  -1.4139831797862490e-01  -1.3612082403952502e-01  -1.3443207638916654e-01  -1.3764922290675144e-01  -1.2784797538003831e-01  -1.2341977495903908e-01  -1.1692829726853980e-01  -1.2251651931968074e-01  -1.2238772895146814e-01  -1.1500705306030753e-01  -1.2066635369059030e-01  -1.1668210616282383e-01  -1.0917672306198295e-01  -1.0446545031816194e-01  -1.0445771122968939e-01  -9.6516459475778457e-02  -9.2202548818231103e-02  -9.2358531149831530e-02  -8.5304114671355943e-02  -1.0412819354088169e-01  -9.9359213922858763e-02  -1.1027873047124390e-01  -9.6205994578020954e-02  -8.6509139768881360e-02  -9.4988753530353048e-02  -1.1386250209677906e-01  -8.7659409629131296e-02  -9.6554835877363757e-02  -7.5320164886718444e-02  -1.0392834971633808e-01  -1.0105147991053479e-01  -8.5737017138845378e-02  -1.0471533825532447e-01  -7.8368515376897707e-02  -7.7496422349407248e-02  -8.0456494319126964e-02  -7.7867807625092461e-02  -7.6048981692120335e-02  -1.0816163667197266e-01  -8.7531874448929806e-02  -9.5551312176263378e-02  -1.0099512595564020e-01  -1.0507286862707384e-01  -9.7012594718