<?xml version="1.0"?>
<VTKFile type="UnstructuredGrid"  version="0.1"  >
<UnstructuredGrid>
<Piece  NumberOfPoints="1277" NumberOfCells="2456">
<Points>
<DataArray  type="Float64"  NumberOfComponents="3"  format="ascii">0 0 0  0 1 0  1 1 0  1 0 0  1.1 -0.1 0  -0.1 -0.1 0  1.1 1.1 0  -0.1 1.1 0  0.508722188652774 0.5037755607533735 0  0.6307700042474308 0.7179256278507823 0  0 0.9499999999997918 0  0 0.8999999999995836 0  0 0.8499999999996529 0  0 0.7999999999999998 0  0 0.7500000000003466 0  0 0.7000000000006934 0  0 0.6500000000010401 0  0 0.6000000000013869 0  0 0.5500000000017335 0  0 0.5000000000020587 0  0 0.4500000000018723 0  0 0.4000000000016644 0  0 0.3500000000014564 0  0 0.3000000000012483 0  0 0.2500000000010403 0  0 0.2000000000008322 0  0 0.1500000000006241 0  0 0.100000000000416 0  0 0.05000000000020799 0  0.04999999999989965 0 0  0.09999999999981467 0 0  0.1499999999997036 0 0  0.1999999999995579 0 0  0.2499999999994121 0 0  0.2999999999992664 0 0  0.3499999999991206 0 0  0.3999999999989749 0 0  0.4499999999988292 0 0  0.4999999999986943 0 0  0.5499999999988151 0 0  0.5999999999989468 0 0  0.6499999999990784 0 0  0.69999999999921 0 0  0.7499999999993417 0 0  0.7999999999994734 0 0  0.8499999999996051 0 0  0.8999999999997368 0 0  0.9499999999998684 0 0  1 0.04999999999989965 0  1 0.09999999999981467 0  1 0.1499999999997036 0  1 0.1999999999995579 0  1 0.2499999999994121 0  1 0.2999999999992664 0  1 0.3499999999991206 0  1 0.3999999999989749 0  1 0.4499999999988292 0  1 0.4999999999986943 0  1 0.5499999999988151 0  1 0.5999999999989468 0  1 0.6499999999990784 0  1 0.69999999999921 0  1 0.7499999999993417 0  1 0.7999999999994734 0  1 0.8499999999996051 0  1 0.8999999999997368 0  1 0.9499999999998684 0  0.9499999999997918 1 0  0.8999999999995836 1 0  0.8499999999996529 1 0  0.7999999999999998 1 0  0.7500000000003466 1 0  0.7000000000006934 1 0  0.6500000000010401 1 0  0.6000000000013869 1 0  0.5500000000017335 1 0  0.5000000000020587 1 0  0.4500000000018723 1 0  0.4000000000016644 1 0  0.3500000000014564 1 0  0.3000000000012483 1 0  0.2500000000010403 1 0  0.2000000000008322 1 0  0.1500000000006241 1 0  0.100000000000416 1 0  0.05000000000020799 1 0  -0.1 1.05000000000004 0  -0.1 1.000000000000079 0  -0.1 0.9500000000001624 0  -0.1 0.9000000000003032 0  -0.1 0.850000000000444 0  -0.1 0.8000000000005848 0  -0.1 0.7500000000007256 0  -0.1 0.7000000000008665 0  -0.1 0.6500000000010508 0  -0.1 0.6000000000012352 0  -0.1 0.5500000000014196 0  -0.1 0.500000000001539 0  -0.1 0.4500000000014195 0  -0.1 0.4000000000013 0  -0.1 0.3500000000011588 0  -0.1 0.3000000000010178 0  -0.1 0.2500000000008986 0  -0.1 0.2000000000007579 0  -0.1 0.1500000000006174 0  -0.1 0.1000000000005272 0  -0.1 0.05000000000040083 0  -0.1 2.671196597248127e-13 0  -0.1 -0.0499999999998666 0  -0.0500000000000906 -0.1 0  -1.730560139634463e-13 -0.1 0  0.04999999999975802 -0.1 0  0.09999999999961506 -0.1 0  0.1499999999994613 -0.1 0  0.199999999999302 -0.1 0  0.2499999999991446 -0.1 0  0.2999999999990088 -0.1 0  0.3499999999988296 -0.1 0  0.3999999999986936 -0.1 0  0.4499999999985143 -0.1 0  0.4999999999984002 -0.1 0  0.5499999999985247 -0.1 0  0.5999999999986493 -0.1 0  0.6499999999987955 -0.1 0  0.6999999999989417 -0.1 0  0.7499999999990659 -0.1 0  0.7999999999992116 -0.1 0  0.8499999999993573 -0.1 0  0.8999999999994526 -0.1 0  0.949999999999584 -0.1 0  0.9999999999997226 -0.1 0  1.049999999999861 -0.1 0  1.1 -0.0500000000000906 0  1.1 -1.730560139634463e-13 0  1.1 0.04999999999975802 0  1.1 0.09999999999961506 0  1.1 0.1499999999994613 0  1.1 0.199999999999302 0  1.1 0.2499999999991446 0  1.1 0.2999999999990088 0  1.1 0.3499999999988296 0  1.1 0.3999999999986936 0  1.1 0.4499999999985143 0  1.1 0.4999999999984002 0  1.1 0.5499999999985247 0  1.1 0.5999999999986493 0  1.1 0.6499999999987955 0  1.1 0.6999999999989417 0  1.1 0.7499999999990659 0  1.1 0.7999999999992116 0  1.1 0.8499999999993573 0  1.1 0.8999999999994526 0  1.1 0.949999999999584 0  1.1 0.9999999999997226 0  1.1 1.049999999999861 0  1.05000000000004 1.1 0  1.000000000000079 1.1 0  0.9500000000001624 1.1 0  0.9000000000003032 1.1 0  0.850000000000444 1.1 0  0.8000000000005848 1.1 0  0.7500000000007256 1.1 0  0.7000000000008665 1.1 0  0.6500000000010508 1.1 0  0.6000000000012352 1.1 0  0.5500000000014196 1.1 0  0.500000000001539 1.1 0  0.4500000000014195 1.1 0  0.4000000000013 1.1 0  0.3500000000011588 1.1 0  0.3000000000010178 1.1 0  0.2500000000008986 1.1 0  0.2000000000007579 1.1 0  0.1500000000006174 1.1 0  0.1000000000005272 1.1 0  0.05000000000040083 1.1 0  2.671196597248127e-13 1.1 0  -0.0499999999998666 1.1 0  0.6573169443694664 0.7122362231821461 0  0.6831144823231654 0.7040209802711217 0  0.7076678440127008 0.692998366648387 0  0.7305402385135091 0.6792485170024656 0  0.7512355768805643 0.6627753822571496 0  0.7681687814090874 0.6430741435250551 0  0.780940668379219 0.6209662828807397 0  0.7913325432374686 0.5979216047127816 0  0.7992535368928348 0.5740642508097072 0  0.8043994534192336 0.5496257942190297 0  0.8071916176537471 0.5250076809848183 0  0.8076543925062634 0.5003603346964773 0  0.8056711250843739 0.4758858889164449 0  0.8012862387542828 0.451804548381234 0  0.7945233049969221 0.4282554844790568 0  0.7852297084740736 0.4055980989410538 0  0.7736174905092819 0.3839124732666989 0  0.7597691167132592 0.3633544450115559 0  0.743778610821258 0.3441016818809141 0  0.7257008368729408 0.3262320145094502 0  0.7052514141306828 0.3100806824697522 0  0.6830631117187241 0.2956199961885644 0  0.6589594337356695 0.2837307977032646 0  0.6336741122366883 0.274545581438198 0  0.6071389451120154 0.2689935372007346 0  0.5801153153736145 0.2659502356710836 0  0.5527220002277132 0.2650010717620079 0  0.52538448607086 0.2655885973123018 0  0.4982117956335629 0.2674190167266366 0  0.4710977333046479 0.269901891681013 0  0.4441866590820757 0.2731483120962877 0  0.4174915468562494 0.277267531724792 0  0.3917498434312492 0.2826303972881091 0  0.3673306549167961 0.2894420419167876 0  0.3437615489676297 0.2976017846560135 0  0.3215594794515182 0.306954789976756 0  0.3005796836283857 0.31809998545838 0  0.2809498122750152 0.3311645037755433 0  0.262718066134891 0.3460649255270555 0  0.2458635621472882 0.3627413927295569 0  0.2304080053639342 0.3810424600596555 0  0.2159553240029931 0.4009841138375501 0  0.202497774784042 0.4224411696371479 0  0.1903563318247203 0.4453115515445399 0  0.1806561025194437 0.469787467028182 0  0.1741150983747697 0.4955057118323255 0  0.1735974716768968 0.5224056845612064 0  0.1789814593963752 0.5489282215063254 0  0.1895918406611124 0.5736002830995173 0  0.2044661261037393 0.5957055152948066 0  0.2211449457397093 0.6159158867938289 0  0.2392404036451557 0.6341844849101277 0  0.258015626876288 0.650777048259749 0  0.2775199242441521 0.6658674550617145 0  0.2980553870916412 0.6791860753681236 0  0.3196915576075861 0.690676646852583 0  0.3424128252161517 0.7003040320193611 0  0.3659785231826345 0.7084241578672738 0  0.3905132220017611 0.715031227801617 0  0.416049014934991 0.720089776376714 0  0.4421578039691366 0.7235887039702135 0  0.4686816703504558 0.7258615326015192 0  0.495481790536718 0.7271759878764905 0  0.5225011305296744 0.727494171402945 0  0.5496085938305953 0.7269186930871638 0  0.5768424344143008 0.7256504615776938 0  0.6039908545326459 0.722504688452356 0  0.2619307444670188 0.6232752248783031 0  0.2414515528531337 0.4081236121644133 0  0.7527701115148617 0.6242557225807934 0  0.7819503336286523 0.535401001126746 0  0.6374939876510461 0.6970379613124933 0  0.6150739817044545 0.2903473575967899 0  0.717149454229843 0.3475976044750568 0  0.5165121523041738 0.2848195216066563 0  0.2899839020957891 0.3579743268641902 0  0.3452381395734618 0.3210409810214001 0  0.4421791265916871 0.29909259190333 0  0.3202155518608557 0.6649319411928236 0  0.3856314572244793 0.6910343115590412 0  0.4600128924814226 0.7030899766084279 0  0.5372908585851726 0.7076227767314751 0  0.7657568515272298 0.4231867289921854 0  0.2026810509693786 0.5515154117623788 0  0.2046966489239991 0.4693675490120647 0  0.7064868778780929 0.6699307758092974 0  0.3903972468402199 0.3061454479337142 0  0.7779141155043798 0.4683593441902501 0  0.588649695090235 0.7048563842229142 0  0.7718346218565073 0.5788488334110555 0  0.7445710223616129 0.3832058851098956 0  0.6805540584913166 0.3168660238381652 0  0.5698766806318489 0.2822161486549207 0  0.2281401883880735 0.5910348009847928 0  0.1922672907755422 0.5082983591706579 0  0.486328737973303 0.7056067988419518 0  0.4791054537443437 0.6826479366144592 0  0.4518113713033422 0.6797882918089778 0  0.4714650387945662 0.6590644159095927 0  0.4416028030149685 0.6557236466152696 0  0.458066287548257 0.6376845479514188 0  0.4839570833800909 0.6331929440573801 0  0.4318225936953632 0.6303339634314078 0  0.4541900292666669 0.6047945995090392 0  0.4122040915681442 0.6014694763720116 0  0.5032702922997327 0.5986395758478156 0  0.5437429671639438 0.6277713170275354 0  0.5509788537596317 0.5810492217092958 0  0.5858581391732561 0.6151127586025598 0  0.5978849360177592 0.568647516070577 0  0.6314458307252093 0.602249550832498 0  0.6447800910701904 0.5555379848341797 0  0.6803590656743826 0.5845117353069114 0  0.6936510456573582 0.5482183844641053 0  0.6581881151595964 0.5203953548973342 0  0.7000629755886234 0.5178245118435221 0  0.6774102742533247 0.4872606163643785 0  0.6286022709691861 0.494575161917285 0  0.6420287370791137 0.4589462392648161 0  0.6895009417265887 0.4475810775668524 0  0.659298989388286 0.4198980208064271 0  0.6112455850287605 0.4296041852227341 0  0.6251585646353733 0.3952545231881536 0  0.5809650602475824 0.400850568780637 0  0.5984764519914479 0.3650834893324253 0  0.5497726886627722 0.3662855970525333 0  0.5366960505845398 0.4043086327941761 0  0.5041576933490551 0.3680985354533656 0  0.4903246615812161 0.4088805491142699 0  0.4571937341433953 0.3718470162347255 0  0.4434449980904794 0.4121341808744908 0  0.6645565747993575 0.618
[...]
<PointData  Scalars="u"> 
<DataArray  type="Float64"  Name="u"  format="ascii">-1.3606058421287530e-18  -2.1549813088315230e-18  -2.1211809407473353e-17  1.2280949713352967e-18  -5.6949504583365328e-20  1.7320937847446553e-19  -4.0329771433583218e-19  1.5880406739651644e-19  1.3286040017333067e-01  -6.1253325801296846e-02  -4.4266443468274141e-18  -2.6478893495998874e-17  3.7813030503688121e-18  -2.2800587054246335e-17  -1.5274369705878671e-17  -3.2402602642265154e-17  -1.1299528392909477e-17  7.2675123940011035e-17  -4.0506623747265580e-18  -3.3868776058738616e-17  7.4511424535871919e-18  -1.3588209664797715e-17  -2.8020401233297663e-17  3.9920869082301685e-17  1.5724775561499180e-17  -5.5470756958887197e-18  1.3525904432319779e-17  -2.5464117091366443e-17  2.5955145410411640e-17  -1.6574838926444498e-17  -2.0878359070085720e-17  -2.2973767578188761e-18  -3.8051677520017521e-17  -1.4170816674574950e-17  -2.6783059840647057e-17  4.7829831126697939e-17  -2.6830386489252815e-17  -6.3281803203231396e-17  4.9455128453022042e-17  -1.0419005224594636e-16  -8.8931284295303996e-17  -7.4077638961887922e-17  -1.4822986479464305e-17  -2.7330762020710587e-18  -6.4400022701604022e-17  -2.9924755449856333e-17  -2.3535170040204281e-17  -2.9694773948919161e-18  1.5126264630831264e-17  4.1391595712493002e-17  5.4511927476564167e-18  -1.6900781089082200e-16  1.9557384648348992e-16  1.0957893207276823e-17  -1.6179316718847620e-16  -2.0265464748379789e-17  1.6698305341772232e-16  -1.2804560585454956e-16  -4.1125844805834198e-16  -4.1934758575142230e-17  1.4989121831106353e-16  1.1340170506391700e-16  -1.9411773325412682e-17  1.8890210416150383e-16  9.3966710443151802e-18  -8.9557973385283789e-18  -8.9553755158726035e-17  -2.6983719438857177e-18  -3.2061864725367290e-17  -3.4474268576410607e-17  1.2067179775767451e-16  -1.7976755380807278e-17  2.1475418893530732e-17  3.2352838281985377e-17  -2.5516900148575468e-16  1.2075207431228478e-16  2.1242334801153399e-16  -9.8309892042055714e-17  7.5494112716743374e-17  3.5175859319414319e-16  3.2085720828083761e-16  -1.7507728277790448e-16  7.4621267062031203e-17  3.1844414967053386e-18  7.3039083240818221e-17  7.3289425451472118e-17  -1.1148006525104617e-19  1.4473991927842456e-19  -1.8491837765504276e-18  -2.4435571780102662e-18  -1.1172960049432297e-18  -1.8359586049736127e-18  -3.6926650860860191e-18  -6.3053396076910467e-18  2.2553658364141379e-18  8.7545259564989174e-18  9.4078419722800576e-19  -4.5929605091128458e-18  -1.0073810367642621e-18  -1.5937454350671798e-18  -2.0990369958056734e-18  1.6181950229440731e-18  3.0747899505541044e-18  7.4725124712897702e-19  -6.2575840499453115e-19  1.0189588505695793e-19  7.0014876818787931e-19  1.3210505380068712e-18  -6.0712003052222634e-19  1.2600879873375462e-19  -2.9287666669723412e-19  -2.0137502850254901e-18  -3.3448119404230474e-18  -2.3710143589130289e-18  -3.5292615761298672e-18  -4.7314764228565161e-18  1.3283163631003185e-18  5.0310866287062017e-18  -4.8740227106914953e-18  -4.4607535752228691e-18  -1.4317180816324864e-18  -1.0397856287284442e-17  -1.5113060645212180e-17  -9.8333756678893938e-18  -1.3033214388260672e-19  -5.6686884210648417e-19  -7.6552844855260004e-18  -5.8119315371913103e-18  -2.4423799477027493e-18  -5.7771287379305417e-19  2.2354675721705717e-19  1.3641774638382131e-20  1.2849066655332971e-20  2.7856147095061035e-19  -8.5709377428579269e-19  -8.1974918683457303e-19  -1.5311212795492744e-18  -5.4712573803506952e-19  4.4896639432169476e-18  -2.6215126206762074e-19  -6.6313319285640837e-18  -3.8979764516816589e-18  -1.5379784803343845e-18  -1.7199647285968254e-18  -5.2080067806586782e-18  -3.4180822159537018e-18  4.7534801357244870e-18  -8.2408434349836589e-19  -2.3752507477584808e-18  2.0890187245654846e-18  1.0647984011978372e-18  -1.4069737534572180e-18  -2.2332019332967691e-18  1.0903306741252839e-19  4.4895949950947952e-19  1.4670601232103519e-19  8.8319022147341397e-19  -6.0506491777504366e-19  -1.8415830203096544e-18  -4.2379756761486370e-18  -6.3911455395594554e-18  -2.4947850203013724e-18  2.6780181413503684e-18  2.5342186909851644e-18  -2.4665356205779166e-18  -6.4316118290488393e-19  3.0023036954887456e-19  -1.0409023537570241e-18  -3.5033893159112804e-18  3.1684342408038065e-18  6.6888369077674128e-18  -2.8280933916978037e-18  -1.7755654150029360e-18  9.6708527593568396e-20  -2.5141484636653904e-19  4.6582058899697599e-19  3.1791432393126417e-19  -2.5759726289613286e-19  -6.4984130385437058e-02  -6.7887094768060124e-02  -6.9923498799829120e-02  -7.0270981469515437e-02  -6.8937972081365081e-02  -6.5429797876475931e-02  -6.0470864364674172e-02  -5.5741838566813653e-02  -5.1595320772348824e-02  -4.8381366274193156e-02  -4.6397693287801668e-02  -4.5726533905189493e-02  -4.6345616777104588e-02  -4.8015921954176026e-02  -5.0624320000821663e-02  -5.3827722879534343e-02  -5.7255805109491464e-02  -6.0504140347645695e-02  -6.3482905178236557e-02  -6.5840102379554996e-02  -6.7066693911441433e-02  -6.7529072088314490e-02  -6.6807635778876120e-02  -6.5095487202622426e-02  -6.1991935677565509e-02  -5.8610807197249620e-02  -5.5477452294390620e-02  -5.3091784476068084e-02  -5.1698427950451098e-02  -5.1603505041674831e-02  -5.2744523512476126e-02  -5.5027267100335231e-02  -5.7548824923925997e-02  -5.9914599123023181e-02  -6.2345542972365997e-02  -6.3879869104735199e-02  -6.4993852551766318e-02  -6.4720614109920888e-02  -6.3393594052736341e-02  -6.1060432641726871e-02  -5.8188006300331649e-02  -5.5317503984435856e-02  -5.2866061983396079e-02  -5.1290337682547378e-02  -5.0456421377244057e-02  -5.0640823647972621e-02  -5.1770727750786047e-02  -5.3637646213265437e-02  -5.5728174234346797e-02  -5.7835332433642493e-02  -5.9820629179117277e-02  -6.1580043062278378e-02  -6.3122502468411876e-02  -6.4341628242480978e-02  -6.4828158676278266e-02  -6.4452014221762610e-02  -6.3024437735952982e-02  -6.1181871830510104e-02  -5.9008151209417874e-02  -5.6511690027364371e-02  -5.4294815471655822e-02  -5.2588779454540990e-02  -5.1762821676011081e-02  -5.1818272199860620e-02  -5.3086469436200420e-02  -5.5610231625967392e-02  -5.8268227864499367e-02  -1.8270552986299295e-02  -1.3459329734437045e-02  -2.3625570759283378e-02  -9.6006448081538843e-03  -2.0452109826255421e-02  -2.1425539958411059e-02  -2.2221747229367254e-02  -9.8193283358724865e-03  -1.5227678881370856e-02  -1.6422286616474945e-02  -2.8017937438024622e-03  -1.7793799035298190e-02  -1.3262443918080877e-02  -6.2745144267627173e-03  -8.2694756698153161e-03  -1.1493291816122764e-02  -2.1563166496811406e-02  -1.6441747372306560e-02  -2.8265746032706086e-02  -1.1279181290734706e-02  -7.1905232963436561e-03  -1.3429269608689367e-02  -1.4073259373053979e-02  -1.6448049587819254e-02  -2.5662100320104263e-02  -1.7759386605570988e-02  -2.0462768098668427e-02  -2.1846569813632477e-02  -5.9869391405753319e-03  1.8626263594964613e-02  1.7756919436682107e-02  4.3455299460337340e-02  4.1485608601189883e-02  6.3702948458796635e-02  7.1700132537284800e-02  6.4975967404482027e-02  9.0297946906286064e-02  8.1999127964738613e-02  9.9377948769167251e-02  7.5463714583875588e-02  1.0642148482002217e-01  7.6968753987248534e-02  1.0096868473006702e-01  6.9720300376756902e-02  8.6357728931228575e-02  5.4269632012039354e-02  6.0055553666377971e-02  8.7476312959415228e-02  6.1486559638713474e-02  7.6867522146332884e-02  1.0387202136317468e-01  9.2239778883947229e-02  6.0886282749988918e-02  6.8214348681482753e-02  9.5833184377629221e-02  7.1409709983762004e-02  9.0799647138963588e-02  6.0120015380522640e-02  7.3208611820922850e-02  1.0158360904635025e-01  7.7805759774466021e-02  1.0566357908871780e-01  7.6188768472433221e-02  1.0096986032866231e-01  4.0687163203146193e-02  6.8140805109573169e-02  8.5087346166375200e-02  4.3738415827706018e-02  5.9072093096200685e-02  6.6746290804765782e-02  9.7421616445312470e-02  8.1504716625642612e-02  1.0111461570013212e-01  8.1749462444313858e-02  6.2991648062133185e-02  6.0698218743347167e-02  7.1754489782776668e-02  4.9918451029854198e-02  5.4251855042990155e-02  3.9395112945018310e-02  1.1468738613312365e-01  7.4379187824862872e-02  5.1201847283355466e-02  1.1662898267981658e-01  4.1937148158718747e-02  2.6447366670347725e-02  1.5688031981102541e-02  2.0166308024840016e-02  5.1891953458727658e-02  4.1031404962691836e-02  5.5855398633733844e-02  4.9071094112894807e-02  1.4875109627425923e-02  6.9366254533612129e-02  3.3790594279188457e-02  4.0234612767557791e-02  3.3666833519941652e-02  3.2538824801737219e-02  1.8184349449429232e-02  1.4876029655015353e-02  3.5261285146836713e-02  1.9684915424813782e-02  4.8775939158823424e-02  2.5095625726658563e-02  2.9192407996444847e-02  2.2234737062297477e-02  3.1294926074296674e-02  1.3406142535056974e-02  1.1389894036034975e-01  4.6702093822979400e-02  1.9154544614792740e-02  1.9754194529940230e-02  1.2466329276534632e-02  2.9121733837933386e-02  1.7583167111482757e-02  2.5647820971388961e-02  5.1149550851578109e-02  2.8714490693347975e-02  2.2805792461587100e-02  8.2221585881094399e-03  1.0804415753123438e-02  1.6850548588817408e-02  2.5126955322298011e-02  -9.4889614922710908e-03  5.5648001696379498e-02  1.9636071293070146e-02  3.6498386481675096e-02  7.7047650268113480e-03  -1.3260251488659762e-03  4.8313680330114940e-02  2.8484698283470427e-02  1.7737358861224174e-02  3.8124638367463960e-03  6.1379828250146791e-03  4.8208588495862827e-02  2.5729339845307533e-02  1.2256200421187020e-01  2.7943048321385611e-02  3.6077090967395135e-02  1.3177568955123328e-02  4.3616375727767573e-03  3.7636186146824513e-02  1.1238230957902080e-01  2.6475578987411393e-03  4.0589991455974549e-02  1.4732126782227802e-02  4.5844851522602571e-02  1.2364205867914514e-01  3.2862532203363094e-03  -1.0946805209633178e-02  1.1308743724048162e-01  9.2811835452449254e-02  9.0984577206606645e-02  -1.4288403028354024e-02  -8.1609244636819053e-03  -1.3293387045425504e-03  -1.2537840782964455e-02  -7.5591497204947344e-03  -1.9193745606702381e-02  -1.3097055862584426e-02  -6.5927227693500642e-03  -3.8812293491335462e-03  1.8244988976646035e-02  2.9652512528794777e-03  -1.3888679442606145e-02  -7.6528268903535588e-03  -2.1038953616372289e-02  -1.0046847616540800e-02  -8.1075171773919309e-03  1.2892174417857666e-02  3.6387566189530027e-02  -1.9485055421375810e-02  1.3789093244415879e-02  -1.4076790593225625e-02  7.7176773856390806e-03  -8.8997745743827870e-03  1.2311027629517928e-02  -1.1065996217679655e-02  -8.5445859437911394e-03  -1.0662369981896992e-02  -1.0871256782720032e-02  -2.6238544831742257e-02  -1.2263829588418170e-02  -1.9486695620443705e-02  1.2278931579112261e-02  -7.7243595314709576e-03  -1.0642633717144780e-02  -2.0013881665257562e-02  -1.5061599273667459e-02  1.0245464210066973e-02  -1.1533146385236247e-02  -5.4927061569715911e-03  -4.3249996494174230e-03  1.0798951938852133e-01  -1.2436929919105144e-02  -1.6473645661049318e-02  -1.5365450341746259e-04  4.2742482596100972e-02  9.9869382005444932e-03  1.0929790452607587e-03  1.1329451830341065e-01  1.2415314621830689e-01  1.2857029410932963e-01  -2.3735711494575359e-02  8.5919799563157432e-03  -3.0860015576462618e-02  7.1095540481667706e-03  -2.7154286113788798e-02  -1.7837981205803263e-02  1.2727278670243855e-01  7.9808195406156808e-03  3.0224539093909879e-03  -1.9732764690636791e-02  1.2361905877940754e-01  1.1411715554317173e-02  8.4929377784254897e-03  -1.2027937995150419e-02  4.8841469992744182e-03  8.6429474980301256e-03  4.0615792976983429e-02  -3.1172316185023346e-02  1.1888891731239332e-02  1.1835899276939872e-01  4.1848275751176084e-02  -2.3252518742368347e-02  -2.3828647294423771e-02  3.3905174598447517e-02  -7.8718609577935941e-03  7.3192195622546422e-03  7.0307819417591011e-02  8.3197230722646936e-03  -1.2496193866383032e-02  5.1287961729102804e-03  3.5613779805918145e-03  1.0903999446801360e-01  2.1555202977927825e-02  -1.9786403299629482e-02  -1.1308810816079800e-03  4.5917341020401035e-02  2.9272669716762029e-02  6.8405978783325036e-02  9.4584142373608793e-03  -4.7846148300871071e-03  8.1057377427777421e-03  6.1809317164879312e-03  2.0160016142377689e-02  3.9335446631641078e-04  2.8698528791337562e-02  3.2183321025324979e-02  4.9421478289789184e-02  5.6179493935480114e-02  3.0472481176308967e-02  -2.9676392329121407e-02  -9.5230028255219356e-04  1.0127118225528977e-02  3.0900388380101122e-02  1.0502094491903482e-02  -4.6875012596026321e-03  4.8341417022501616e-02  3.1228925191189465e-02  5.2292956767126850e-02  4.1625081788346750e-02  1.3350769774476245e-02  3.2262222921451561e-02  -2.4447423192832933e-02  2.0917762619870755e-02  9.9640773799901730e-02  2.5787069555677368e-02  2.8909799278447296e-02  4.6932728779499430e-02  -2.3499533620755225e-02  4.6300613438312391e-02  1.2562311603602955e-01  4.4180592678174070e-02  5.4009470106804241e-03  5.6944123239765082e-02  5.4838054710928806e-02  3.9637991683562745e-02  -2.8381351753428404e-03  3.7298428645591894e-02  5.5236959160565348e-03  3.6590049985598706e-02  -9.1713146988162755e-02  -9.1255128400979629e-02  -9.3098573797764816e-02  -9.6262086119893314e-02  -9.1674229497412454e-02  -8.8105056833054363e-02  -9.0146456773459421e-02  -9.3381402243460823e-02  -8.4515103275941403e-02  -8.2853128086128797e-02  -8.4064685957617485e-02  -8.5201541135111122e-02  -8.1947205068343229e-02  -9.4445056225559001e-02  -8.1318139297936631e-02  -4.9890764732312257e-02  -4.1972844990085065e-02  -4.4600595380540252e-02  -8.1039683778608623e-02  -5.1022977937219098e-02  -4.8501499622001287e-02  -9.0499239626657665e-02  -8.3888912556114331e-02  -7.2034523399517256e-02  -5.3246313404639374e-02  -6.8736428168664140e-02  -4.5697070922888383e-02  -8.0126117076427555e-02  -6.0079671109145083e-02  -8.6855058987824807e-02  -7.9430187125128671e-02  -7.4225502499584761e-02  -5.6095760631322551e-02  -5.9805424813369625e-02  -6.7614949833117832e-02  -5.8981173341865298e-02  -6.0377400422109637e-02  -3.2085576941672946e-02  -4.1897920084583297e-02  -3.5221216276335017e-02  -8.0050672632857742e-02  -5.8072674441702263e-02  -6.4691940032065173e-02  -7.0755898232928674e-02  -6.9444461393786835e-02  -2.2739428856694263e-02  -2.0499565948297039e-02  -7.2161758346011906e-02  -7.3676478177937682e-02  -5.4816349510115388e-02  -4.7494276784408845e-02  -4.5585211542407182e-02  -4.1388902998019991e-02  -4.0114709231998488e-02  -4.6156785053312804e-02  -3.8702451172787054e-02  -4.3703337695404999e-02  -4.0018043971967558e-02  -2.9140798497143856e-02  -2.8986413998869309e-02  -7.1086120739746850e-02  -7.3205029388874299e-02  -7.3132172520941272e-02  -7.3354051094920616e-02  -7.5644739121100812e-02  -7.2064121669532216e-02  -6.7647634482069993e-02  -7.4237768555863018e-02  -7.1160641163738117e-02  -7.5973067150607448e-02  -7.5034914504001335e-02  -9.4000994128631513e-02  -1.0469095361419915e-01  -1.0589429255985719e-01  -1.1745263927990451e-01  -1.1937563823964521e-01  -1.1551378365449240e-01  -1.2923221567968690e-01  -1.3037358531508383e-01  -1.3648598378097196e-01  -1.3788274984552801e-01  -1.3235326113974610e-01  -1.3638622286906205e-01  -1.3059168328657891e-01  -1.3634952326830063e-01  -1.3056930895909544e-01  -1.2438257915171501e-01  -1.1843304382393448e-01  -1.1893885944491807e-01  -1.1226573079142148e-01  -1.1488659712742443e-01  -1.0402111758587276e-01  -1.0397960696331308e-01  -9.5318865015238355e-02  -1.3345708109606041e-01  -1.3384438320212730e-01  -9.4123703196337755e-02  -8.7963833239174019e-02  -9.8931926271592863e-02  -1.2955239221705681e-01  -8.0710105910542923e-02  -1.2288796976484052e-01  -1.0772543127710700e-01  -7.3888043631490444e-02  -8.0522869638695913e-02  -6.9726726119405294e-02  -7.6454369277270576e-02  -6.8445450815233927e-02  -7.5779609072030990e-02  -7.0081669841220079e-02  -7.7920611632963599e-02  -7.3337757278138321e-02  -8.2501050689613067e-02  -7.9285429966602816e-02  -9.0474508116525423e-02  -8.6892340224822701e-02  -9.9323885671735085e-02  -9.5052393125991397e-02  -1.0955381440881583e-01  -1.0322882008949195e-01  -1.1888313197117806e-01  -1.0952556138002176e-01  -1.2523550181659285e-01  -1.2777719223598996e-01  -1.3422446995341206e-01  -1.2735663811991621e-01  -1.3456752456248205e-01  -1.3774135255799119e-01  -1.3637658760729743e-01  -1.3761246141499997e-01  -1.2282036599892443e-01  -1.3421014803264938e-01  -1.3523075875833168e-01  -1.2573964797878551e-01  -1.0974336925319325e-01  -1.0307172356520168e-01  -1.2859187560990470e-01  -1.3108696937376055e-01  -1.3025768851493649e-01  -1.2769951473290445e-01  -1.2411776434531394e-01  -1.2683325391770911e-01  -1.2340341654758408e-01  -1.2146704299313187e-01  -1.2191268845424243e-01  -1.1508722406524360e-01  -1.1568392022699031e-01  -1.1977717368767436e-01  -1.1873865249926992e-01  -1.1669975482689576e-01  -1.2021214476747018e-01  -1.1412633530469560e-01  -1.1971551544759061e-01  -1.2048037524766569e-01  -1.2432170692646174e-01  -1.1900107500071100e-01  -1.2722674041138801e-01  -1.2467796900952403e-01  -1.3146772424500758e-01  -1.2814976829405311e-01  -1.3548428325231265e-01  -1.3237838494443799e-01  -1.3886794387095511e-01  -1.3656258837275387e-01  -1.4163344838430095e-01  -1.3807024040616594e-01  -1.4195252219897228e-01  -1.3979356384746969e-01  -1.3972309825791959e-01  -1.3764232413525404e-01  -1.3215444658740522e-01  -1.3414882145518162e-01  -1.2980131794312075e-01  -1.2377131038372623e-01  -1.1883835799111006e-01  -1.2627403797753800e-01  -1.1831898975571363e-01  -1.2661206149407481e-01  -1.1414659459454418e-01  -1.0498732571723916e-01  -1.0917572011100683e-01  -1.0644127885261948e-01  -1.2028979651453417e-01  -1.1047680337432950e-01  -9.8607196400099989e-02  -9.3169674330618499e-02  -5.0098591355725780e-02  -9.4882762567389853e-02  -1.2675536700034370e-01  -1.1737908192664348e-01  -1.1468114015796979e-01  -1.0921723205276272e-01  -1.0679266068766877e-01  -1.1429539843499378e-01  -8.7100724412517122e-02  -8.7612228939224782e-02  -8.4313157221121773e-02  -9.6447579266330241e-02  -7.8141884024881855e-02  -1.0770982453393549e-01  -1.0660654611970771e-01  -1.0901466321703830e-01  -8.3345149784138969e-02  -6.3923567923387173e-02  -1.0323542077050084e-01  -1.0099006541275568e-01  -1.1340441913507565e-01  -1.2945290098603912e-01  -1.2412322044902387e-01  -1.2492009139211543e-01  -1.1767537102909970e-01  -1.2072561075228207e-01  -1.1654228850921798e-01  -1.1658964424163476e-01  -1.1667389905631428e-01  -1.1624395854383376e-01  -1.1212865384137299e-01  -1.1635064825658845e-01  -1.1252318787556885e-01  -1.1521610656118692e-01  -1.1564179883489153e-01  -1.1935328706609180e-01  -1.1217943164042599e-01  -1.1887807134067450e-01  -1.2134082626647597e-01  -1.2580412731820192e-01  -1.1805574448490080e-01  -1.2727107840704863e-01  -1.2940730331470918e-01  -1.3424741991472189e-01  -1.3073243859855058e-01  -1.3784966131705989e-01  -1.3646786031833452e-01  -1.4083035525953014e-01  -1.3789658916586064e-01  -1.4125265267353343e-01  -1.3984235481517601e-01  -1.3915820987267480e-01  -1.3468149660472725e-01  -1.3235544916327385e-01  -1.3482920243924726e-01  -1.2648020276334226e-01  -1.2142735671480685e-01  -1.1560527106481880e-01  -1.2204239507111808e-01  -1.1987754751989153e-01  -1.1448576274424255e-01  -1.1813496088427636e-01  -1.1344071749576032e-01  -1.0730169036798218e-01  -1.0331869565778788e-01  -1.0390440809947667e-01  -9.5994717661046933e-02  -9.2089168947519950e-02  -9.1698803450815797e-02  -8.5218069642117603e-02  -1.0368685319992697e-01  -9.9499692019154123e-02  -1.1031075032264288e-01  -9.6287830394528845e-02  -8.7618929178948951e-02  -9.2102899023816215e-02  -1.1682464574160867e-01  -8.7475531225014155e-02  -1.0001884327413105e-01  -7.7487853200532739e-02  -1.0198391111836497e-01  -9.9007134581868231e-02  -8.6031641418336260e-02  -1.0856591207523229e-01  -7.8531844138384391e-02  -7.5634039774820833e-02  -7.9236281429625244e-02  -7.7469951893929134e-02  -7.5385612713277289e-02  -1.0709005145580713e-01  -9.0116552126072169e-02  -9.6022825909841278e-02  -1.0166641232240294e-01  -1.0601359090693872e-01  -9.7459768