<?xml version="1.0"?>
<VTKFile type="UnstructuredGrid"  version="0.1"  >
<UnstructuredGrid>
<Piece  NumberOfPoints="1277" NumberOfCells="2456">
<Points>
<DataArray  type="Float64"  NumberOfComponents="3"  format="ascii">0 0 0  0 1 0  1 1 0  1 0 0  1.1 -0.1 0  -0.1 -0.1 0  1.1 1.1 0  -0.1 1.1 0  0.507745764551883 0.5049327630657247 0  0.627977301682718 0.7133384344439337 0  0 0.9499999999997918 0  0 0.8999999999995836 0  0 0.8499999999996529 0  0 0.7999999999999998 0  0 0.7500000000003466 0  0 0.7000000000006934 0  0 0.6500000000010401 0  0 0.6000000000013869 0  0 0.5500000000017335 0  0 0.5000000000020587 0  0 0.4500000000018723 0  0 0.4000000000016644 0  0 0.3500000000014564 0  0 0.3000000000012483 0  0 0.2500000000010403 0  0 0.2000000000008322 0  0 0.1500000000006241 0  0 0.100000000000416 0  0 0.05000000000020799 0  0.04999999999989965 0 0  0.09999999999981467 0 0  0.1499999999997036 0 0  0.1999999999995579 0 0  0.2499999999994121 0 0  0.2999999999992664 0 0  0.3499999999991206 0 0  0.3999999999989749 0 0  0.4499999999988292 0 0  0.4999999999986943 0 0  0.5499999999988151 0 0  0.5999999999989468 0 0  0.6499999999990784 0 0  0.69999999999921 0 0  0.7499999999993417 0 0  0.7999999999994734 0 0  0.8499999999996051 0 0  0.8999999999997368 0 0  0.9499999999998684 0 0  1 0.04999999999989965 0  1 0.09999999999981467 0  1 0.1499999999997036 0  1 0.1999999999995579 0  1 0.2499999999994121 0  1 0.2999999999992664 0  1 0.3499999999991206 0  1 0.3999999999989749 0  1 0.4499999999988292 0  1 0.4999999999986943 0  1 0.5499999999988151 0  1 0.5999999999989468 0  1 0.6499999999990784 0  1 0.69999999999921 0  1 0.7499999999993417 0  1 0.7999999999994734 0  1 0.8499999999996051 0  1 0.8999999999997368 0  1 0.9499999999998684 0  0.9499999999997918 1 0  0.8999999999995836 1 0  0.8499999999996529 1 0  0.7999999999999998 1 0  0.7500000000003466 1 0  0.7000000000006934 1 0  0.6500000000010401 1 0  0.6000000000013869 1 0  0.5500000000017335 1 0  0.5000000000020587 1 0  0.4500000000018723 1 0  0.4000000000016644 1 0  0.3500000000014564 1 0  0.3000000000012483 1 0  0.2500000000010403 1 0  0.2000000000008322 1 0  0.1500000000006241 1 0  0.100000000000416 1 0  0.05000000000020799 1 0  -0.1 1.05000000000004 0  -0.1 1.000000000000079 0  -0.1 0.9500000000001624 0  -0.1 0.9000000000003032 0  -0.1 0.850000000000444 0  -0.1 0.8000000000005848 0  -0.1 0.7500000000007256 0  -0.1 0.7000000000008665 0  -0.1 0.6500000000010508 0  -0.1 0.6000000000012352 0  -0.1 0.5500000000014196 0  -0.1 0.500000000001539 0  -0.1 0.4500000000014195 0  -0.1 0.4000000000013 0  -0.1 0.3500000000011588 0  -0.1 0.3000000000010178 0  -0.1 0.2500000000008986 0  -0.1 0.2000000000007579 0  -0.1 0.1500000000006174 0  -0.1 0.1000000000005272 0  -0.1 0.05000000000040083 0  -0.1 2.671196597248127e-13 0  -0.1 -0.0499999999998666 0  -0.0500000000000906 -0.1 0  -1.730560139634463e-13 -0.1 0  0.04999999999975802 -0.1 0  0.09999999999961506 -0.1 0  0.1499999999994613 -0.1 0  0.199999999999302 -0.1 0  0.2499999999991446 -0.1 0  0.2999999999990088 -0.1 0  0.3499999999988296 -0.1 0  0.3999999999986936 -0.1 0  0.4499999999985143 -0.1 0  0.4999999999984002 -0.1 0  0.5499999999985247 -0.1 0  0.5999999999986493 -0.1 0  0.6499999999987955 -0.1 0  0.6999999999989417 -0.1 0  0.7499999999990659 -0.1 0  0.7999999999992116 -0.1 0  0.8499999999993573 -0.1 0  0.8999999999994526 -0.1 0  0.949999999999584 -0.1 0  0.9999999999997226 -0.1 0  1.049999999999861 -0.1 0  1.1 -0.0500000000000906 0  1.1 -1.730560139634463e-13 0  1.1 0.04999999999975802 0  1.1 0.09999999999961506 0  1.1 0.1499999999994613 0  1.1 0.199999999999302 0  1.1 0.2499999999991446 0  1.1 0.2999999999990088 0  1.1 0.3499999999988296 0  1.1 0.3999999999986936 0  1.1 0.4499999999985143 0  1.1 0.4999999999984002 0  1.1 0.5499999999985247 0  1.1 0.5999999999986493 0  1.1 0.6499999999987955 0  1.1 0.6999999999989417 0  1.1 0.7499999999990659 0  1.1 0.7999999999992116 0  1.1 0.8499999999993573 0  1.1 0.8999999999994526 0  1.1 0.949999999999584 0  1.1 0.9999999999997226 0  1.1 1.049999999999861 0  1.05000000000004 1.1 0  1.000000000000079 1.1 0  0.9500000000001624 1.1 0  0.9000000000003032 1.1 0  0.850000000000444 1.1 0  0.8000000000005848 1.1 0  0.7500000000007256 1.1 0  0.7000000000008665 1.1 0  0.6500000000010508 1.1 0  0.6000000000012352 1.1 0  0.5500000000014196 1.1 0  0.500000000001539 1.1 0  0.4500000000014195 1.1 0  0.4000000000013 1.1 0  0.3500000000011588 1.1 0  0.3000000000010178 1.1 0  0.2500000000008986 1.1 0  0.2000000000007579 1.1 0  0.1500000000006174 1.1 0  0.1000000000005272 1.1 0  0.05000000000040083 1.1 0  2.671196597248127e-13 1.1 0  -0.0499999999998666 1.1 0  0.6545313649891776 0.7063900728139496 0  0.6802462568073728 0.6973264708648769 0  0.7046674917779371 0.6859342636192338 0  0.7274114814549388 0.6721591216153068 0  0.7479804012788244 0.6558742137074032 0  0.7651994965709527 0.6368405820750698 0  0.7788703729161466 0.6156398022233898 0  0.7900926652905452 0.593325398774023 0  0.7989428409633647 0.5701135649328116 0  0.8051326459737245 0.5462155909859879 0  0.8088575197151314 0.5220729184614868 0  0.8102321392639898 0.4978121935144083 0  0.8089238868392893 0.4736846298681828 0  0.8050839478590078 0.4499874260307943 0  0.7987112973605694 0.4268614085495185 0  0.7896269306854956 0.4047597388798798 0  0.7780490617582643 0.3838019687580293 0  0.7640214810631917 0.3641823317348475 0  0.7477241973489345 0.3460301950923726 0  0.729165591021871 0.3293956816828189 0  0.7080676295379725 0.314586701101547 0  0.6851486763305256 0.3012634087623656 0  0.6600245263190202 0.2905890100935001 0  0.6338827277827358 0.282536792725929 0  0.6067300346589792 0.2772309980303764 0  0.5790443883011894 0.2737479070245851 0  0.5507228176700429 0.2720785175381826 0  0.5225244103411224 0.271616286016849 0  0.4945505056109268 0.2718910814191761 0  0.4666136664482464 0.272558486299907 0  0.4389100768428591 0.2738707939950242 0  0.4114385873274512 0.2761287950254093 0  0.3853724047473674 0.2799244993765813 0  0.3610555309686669 0.2853599416553905 0  0.3378787429039458 0.2925068343290479 0  0.3165974011562843 0.3009777779626692 0  0.2968803183194462 0.3116015107634234 0  0.2787915653557312 0.3244930179825126 0  0.2623374180359794 0.3395216991171416 0  0.2474858783125347 0.3566172808661527 0  0.2341073772371756 0.3755169603408197 0  0.2216754522182452 0.3965767466684522 0  0.2103883662502775 0.4195327834632406 0  0.2004383502319833 0.4439369487290105 0  0.1927456810568126 0.4697055694164833 0  0.1879770368196363 0.4962170708504304 0  0.1876303218006306 0.523587202793629 0  0.1925953003118931 0.5506055070572516 0  0.201882546025567 0.5763306713178037 0  0.214622638087538 0.6003530785269713 0  0.2293228830036238 0.6223472267088577 0  0.2454831252114171 0.6421496893597364 0  0.2621748854812112 0.6598425902380606 0  0.279618749139386 0.6756413532694094 0  0.2982236005427887 0.6893826497853649 0  0.3181956333643702 0.701026608135826 0  0.3395328773209591 0.710559479294169 0  0.3620524919337054 0.7182371376235912 0  0.3859275910246492 0.7240259136049384 0  0.4112460731299915 0.7280913573128625 0  0.4374126061824211 0.7301946349708187 0  0.4641445773102219 0.7308117291546276 0  0.4912451872790743 0.7303371575099536 0  0.5186174492891796 0.7289112028674928 0  0.5460503480367208 0.7267393890457842 0  0.5736256319280868 0.7241414446581107 0  0.6010695826878647 0.7193825467744105 0  0.2671045586155356 0.6306407683380001 0  0.2461461579851164 0.4042496378685446 0  0.7505417178352098 0.6186758673500187 0  0.7829290229406454 0.5321938104290932 0  0.6345658970648451 0.6926018952009307 0  0.614932121919306 0.2973640116357859 0  0.7202855736341328 0.3502269612396277 0  0.51353792441025 0.2895182355372814 0  0.2894275238168895 0.3526852021856265 0  0.3410029259406006 0.3165080174427823 0  0.4375547628432107 0.2993092430316769 0  0.3202718648631593 0.6739990258128945 0  0.3823934175640336 0.6994194958005279 0  0.4559433103701199 0.7082634646908094 0  0.5337059429889424 0.708317039741214 0  0.7693834519830295 0.4224380969159351 0  0.2143518968059898 0.5539927141469686 0  0.2149679612938141 0.468713665890874 0  0.7035701428779179 0.6636712915878927 0  0.3852820444721565 0.3034977470331706 0  0.7808346675399921 0.4665159511273855 0  0.585497280288744 0.7028940235719022 0  0.7711966745921224 0.5746160748473368 0  0.7482249596686779 0.3839415123292058 0  0.6825999140766966 0.3216390400367549 0  0.5684564201728278 0.2888756100651393 0  0.236770149245331 0.5961573549209087 0  0.2047353614122112 0.5092204026738615 0  0.4823346590577554 0.7092630609446098 0  0.4755733122974329 0.6864858747200837 0  0.4484047098539276 0.6849643058922162 0  0.4685182696185541 0.6629427782112491 0  0.4389956928911251 0.6608032643379083 0  0.455763830252552 0.6417052864296179 0  0.4815016388779136 0.6361793909710503 0  0.4300677219967328 0.6351086470934298 0  0.452654085051315 0.6082646629215928 0  0.4115770811409185 0.6059442323609836 0  0.5013121729830045 0.6005495764359163 0  0.5411716072077712 0.6283898505324238 0  0.5491046034243446 0.5814579050817248 0  0.5834767736931665 0.614193060486368 0  0.5962598158819707 0.5678202971836238 0  0.6293886974438376 0.5999292979586044 0  0.6436701114757387 0.5537216523700023 0  0.6789087049635488 0.5812221579369304 0  0.6931718959684837 0.5455379378526741 0  0.6578880071401706 0.5190388098957145 0  0.700388162718079 0.5157934859802275 0  0.6780026681031769 0.4863618856012985 0  0.6283376864088772 0.4942938723841183 0  0.6424202150356018 0.4592905178105185 0  0.6909766029947106 0.4475551749028149 0  0.6604290599939443 0.4211258138711642 0  0.6113204615386991 0.4310057959686173 0  0.6256334093484417 0.3975905323627916 0  0.5805107722450932 0.40307232173088 0  0.598278334056673 0.3685160080353304 0  0.548512625749937 0.369175366697831 0  0.5355735859800744 0.4061416306628658 0  0.5021798109305708 0.3699594662717491 0  0.4888735387076575 0.4100063954991832 0  0.4548915368410144 0.3722857243019302 0  0.4421156412234402 0.4123699640716389 0  0.662345895790710
[...]
<PointData  Scalars="u"> 
<DataArray  type="Float64"  Name="u"  format="ascii">-3.2238479184519036e-18  -1.6268311088551166e-18  -2.1831408666119139e-17  2.9009616733560191e-19  -3.1100482361927494e-21  2.5066928254459640e-19  -3.9054823487332564e-19  1.7669704334635477e-19  1.3063522533908301e-01  -6.0771897338870985e-02  -3.9075017594325259e-18  -2.9918851185754587e-17  2.0683745517256668e-18  -1.1277836733324636e-17  -3.4000657334408977e-17  -2.1252411230668742e-17  -1.2217921038550099e-17  8.8943127355481570e-17  -8.3200202161429206e-18  -3.2991929665038361e-17  1.7438405773643761e-18  -8.7424885987967146e-18  -3.7492688433505273e-17  3.9649717757351556e-17  1.4221416234182209e-17  -1.1231189064791813e-17  9.2907219335465432e-18  -3.1664823629943123e-17  2.9044859730578036e-17  -2.2243533853495972e-17  -2.1569160039002992e-17  -4.9798617557557131e-18  -5.2770661755734976e-17  -6.5403655592214816e-18  -2.9469162649252235e-17  5.4795618096969743e-17  -4.0398860734896437e-17  -6.0259009837479232e-17  4.9490633477239159e-17  -1.0408424020788353e-16  -8.4515748323480280e-17  -7.3267029599665316e-17  -1.2595085225902580e-17  -2.7012082658077654e-18  -6.4568260309941465e-17  -2.6780023206738254e-17  -2.0122720034157385e-17  7.2997951233435588e-19  1.4433856413034342e-17  4.1382330715292822e-17  1.3907712130063478e-17  -1.7724598020038401e-16  1.6598954945682333e-16  2.2994861004007142e-17  -1.5799240991482130e-16  -1.9981516642244305e-17  1.6704052044919560e-16  -1.2645747973354667e-16  -4.1415103735611571e-16  -4.3032741237404763e-17  1.4502758817789335e-16  1.0706561736197685e-16  -1.4457627552119751e-17  1.7842626834116184e-16  1.6757568545984365e-17  -8.6162735824505608e-18  -9.3282082803058769e-17  -2.8638879977630030e-18  -3.2721440423336792e-17  -3.3876998587196895e-17  1.1929798123693933e-16  -1.0191412653331263e-17  1.8817314239604342e-17  4.7686030053124011e-17  -2.5961712156495843e-16  9.5785729223235714e-17  2.0457357555471884e-16  -9.5759783288183192e-17  7.7302964664425439e-17  3.5421786518163937e-16  3.1867578888923933e-16  -1.7577500150203621e-16  7.3349464598963561e-17  -1.5370770507382026e-17  7.3727861090691298e-17  7.9045352503200701e-17  -1.1710392726972540e-19  2.9522589895386111e-19  -1.9089086998174103e-18  -3.2898578088417623e-18  -6.0484357919507391e-19  -1.2894254730117709e-18  -4.7904917928064999e-18  -6.2681724876443480e-18  3.4865936767860928e-18  1.0324334816210996e-17  1.1366746566642789e-18  -5.0879772377847348e-18  -1.3304997421160454e-18  -1.1370827995298253e-18  -2.2149013425054261e-18  1.0114409812655169e-18  2.9313565596712925e-18  1.8944397814537446e-19  -1.4863571326339241e-18  -4.2378833648172154e-19  7.4245630037611581e-19  1.3205732077581497e-18  -7.3710268663420431e-19  1.6689880725987714e-19  -6.3350082701519745e-19  -2.7579463073172170e-18  -3.1515238643258898e-18  -2.9861109794111324e-18  -4.8767184944775768e-18  -4.5382483264180338e-18  1.6397818653819672e-18  4.7478584702740573e-18  -5.7516432574834461e-18  -4.6593316819219439e-18  -1.4984660058968678e-18  -1.0349940828524959e-17  -1.4603053574440113e-17  -9.6773838060204060e-18  3.0410833572608234e-19  -5.9631841459568685e-20  -7.4589020474433939e-18  -5.4894886457290740e-18  -1.8409546920147120e-18  -1.7953389183489546e-19  2.0501253794127448e-19  -5.6984794465181033e-20  1.3557958778399554e-21  1.8479488497838592e-19  -1.0872064443578183e-18  -5.2017843186355567e-19  -6.1596252493027927e-19  -1.9576992559935710e-18  1.8022105084538262e-18  1.2750512872830640e-19  -5.4471453683227717e-18  -4.0801656868741473e-18  -1.4061040738498201e-18  -1.6456550676192124e-18  -5.5012961963270427e-18  -3.5587351760419932e-18  4.1335671996802688e-18  -1.1269295766284975e-18  -2.4087142806759734e-18  1.5204215031902378e-18  1.4065898684373232e-18  -1.0763552099246145e-18  -2.7533458900131916e-18  -5.3654722168479803e-20  4.8030222924478013e-19  9.1680485855176605e-20  1.0339002141558002e-18  -8.6896663684577347e-19  -1.3392719107066625e-18  -4.0137922776993112e-18  -6.2712607975263622e-18  -2.1532845346451761e-18  3.7467421208418016e-18  4.0857580762409567e-18  -3.0531374169300991e-18  -3.7619221948367961e-18  -9.4358116143932014e-19  -7.4644579737089681e-19  -3.0942828228743277e-18  3.3208603186685294e-18  6.9440763175838673e-18  -2.8674479466899216e-18  -2.6109414656671112e-18  -1.9659217432965191e-18  -5.7972682176498798e-19  1.3839408373429070e-18  5.6926591380625802e-19  -3.4776867527530404e-19  -6.4292342025770471e-02  -6.7140301169944516e-02  -6.9339266144672326e-02  -6.9928155654924426e-02  -6.8871635614239674e-02  -6.5942524862608348e-02  -6.1745754590164015e-02  -5.7536101510659438e-02  -5.3793539453880143e-02  -5.0924695518324542e-02  -4.9193692071041788e-02  -4.8765961189906039e-02  -4.9574091524122649e-02  -5.1443005883794551e-02  -5.4251390700778765e-02  -5.7605113847234768e-02  -6.1072531881272971e-02  -6.4172150716951593e-02  -6.6812135124447766e-02  -6.8628384573139301e-02  -6.9113914207241472e-02  -6.8835347682520753e-02  -6.7134293820984473e-02  -6.4520768414197738e-02  -6.1083192383315513e-02  -5.7732405231229980e-02  -5.4752134040029737e-02  -5.2737109719517006e-02  -5.2114069104951775e-02  -5.3025723413707003e-02  -5.5339040954785763e-02  -5.8810951374694345e-02  -6.2339395530576783e-02  -6.5522441890553507e-02  -6.8469912408909581e-02  -7.0307769158156244e-02  -7.1338142370423185e-02  -7.0682282159232390e-02  -6.8750122032590497e-02  -6.5613805967497787e-02  -6.1881355162385840e-02  -5.8071112509843897e-02  -5.4667296637047488e-02  -5.2355628079862562e-02  -5.1079348433028714e-02  -5.0970730425471331e-02  -5.2166208647158277e-02  -5.3797442882820026e-02  -5.5814682197953783e-02  -5.8545369826729490e-02  -6.1274999565554281e-02  -6.3854446132882520e-02  -6.6230212151951892e-02  -6.8138393758669535e-02  -6.9164219109714625e-02  -6.9105506811110093e-02  -6.7791448235216253e-02  -6.5764102397916760e-02  -6.3127422394152768e-02  -6.0070143116872296e-02  -5.7093908598439075e-02  -5.4583158997257020e-02  -5.2984015632137685e-02  -5.2437747368651103e-02  -5.3319293437955460e-02  -5.5711002971548733e-02  -5.8077599624767363e-02  -2.0367005236576852e-02  -1.5985386413390229e-02  -2.4465394650530894e-02  -1.2680093020079899e-02  -2.0021397105639358e-02  -2.0991747480147201e-02  -2.5523878998663398e-02  -1.0089402206171098e-02  -2.0392351726626651e-02  -2.2390094115586814e-02  -5.9220983744895320e-03  -2.1979585831231874e-02  -1.7599822479360368e-02  -8.8677218130192616e-03  -8.9853017746603855e-03  -1.5809525203826502e-02  -2.0563933343400901e-02  -1.6122792661352730e-02  -2.7935315358618720e-02  -1.6267875142854812e-02  -1.1206792338251944e-02  -1.3589164299664620e-02  -1.6266507315744427e-02  -2.0589136393807807e-02  -2.7498976559236464e-02  -1.7170699218934410e-02  -2.0838981657457661e-02  -2.0794693005314422e-02  -7.8321167820504575e-03  1.6577183999286996e-02  1.5156074528955484e-02  4.1451152029082367e-02  3.9218890808221447e-02  6.1830396510101873e-02  6.9845605320881785e-02  6.2995982038983642e-02  8.8456771854522720e-02  8.0130538026656775e-02  9.7560415798102831e-02  7.3796711368347798e-02  1.0436490815073424e-01  7.5271352930477847e-02  9.8548874901681530e-02  6.7916980551373421e-02  8.3588668141361067e-02  5.2041041550284592e-02  5.7107886840749071e-02  8.4179212939556075e-02  5.7996224505881003e-02  7.3100525426404675e-02  1.0055213344584915e-01  8.8632741546875254e-02  5.6883333361599432e-02  6.4496560504246930e-02  9.2447758043583100e-02  6.8339211229127991e-02  8.7954190912700084e-02  5.7460515618417397e-02  7.0816850344858226e-02  9.8875209943454459e-02  7.5317593976754804e-02  1.0310852993788701e-01  7.3394974618398820e-02  9.8522826377461667e-02  3.8846376296117265e-02  6.5109709176887118e-02  8.2485581069963232e-02  4.1595714307985740e-02  5.7220182090140598e-02  6.5063692312026106e-02  9.6277897517755007e-02  8.0585230507087602e-02  1.0020996488214531e-01  8.1133877670454060e-02  6.2399888738353358e-02  6.0740683593322874e-02  7.1203403842253321e-02  4.9687183890287805e-02  5.3292734166960697e-02  3.9027845989016721e-02  1.1278629551684345e-01  7.3192752338065117e-02  4.9468542713400732e-02  1.1533229317895953e-01  3.8931334472544522e-02  2.6102768548802516e-02  1.6057775676441302e-02  2.0133256523213895e-02  4.8859752483567796e-02  3.7258266219473257e-02  5.4314324099352586e-02  4.6378291251280096e-02  1.3324168486278251e-02  6.6791991973126560e-02  3.1160170552146503e-02  3.6970159095325208e-02  2.9908738221474912e-02  2.9400649273653205e-02  1.3845812055870942e-02  1.1779787287134831e-02  3.3262614470907940e-02  1.6590277168436085e-02  4.7254618719246695e-02  2.4267576331275926e-02  2.7489656983412707e-02  1.9605331987214140e-02  2.7374049653522727e-02  9.2291350226206270e-03  1.1220753647575829e-01  4.3332133786675255e-02  1.5420063530368084e-02  1.6834516836387325e-02  1.0297298362747027e-02  2.7374448492538169e-02  1.6667143910902762e-02  2.4439187767905591e-02  4.8814610576786648e-02  2.6788142495330368e-02  2.0997843383921799e-02  6.3627715899104709e-03  9.8803876065707303e-03  1.6066443238122848e-02  2.2192106018719186e-02  -1.0141091099947045e-02  5.4507588988597540e-02  1.7519587898699743e-02  3.5671278707130681e-02  5.9764386181291214e-03  -5.7996657073309404e-04  4.4473539744952814e-02  2.4792989965886067e-02  1.3670971117589994e-02  4.3602603728084893e-03  5.9496040431465842e-03  4.6702943230029825e-02  2.4640375149571642e-02  1.1990433612531841e-01  2.6994972468606031e-02  3.2934063061571026e-02  1.0461595276053665e-02  3.7006789245633311e-03  3.5156522328482979e-02  1.1102324377457642e-01  1.4334681321572233e-03  4.0237805550081197e-02  1.4338221691736182e-02  4.3574216832421034e-02  1.2111515468650781e-01  5.4072714914186961e-04  -1.5128403949133213e-02  1.0985253292590189e-01  9.1874128200799585e-02  8.9562634930534429e-02  -1.4911818865788556e-02  -1.1502981305152043e-02  -1.2158392652572066e-03  -1.8334865750478553e-02  -9.6728683666034085e-03  -2.2161976675205277e-02  -1.7582332449390243e-02  -6.7654877690064954e-03  -3.9474405099221774e-03  1.7596592664808196e-02  2.7146024455902925e-03  -1.9504259602777529e-02  -6.5535283881435428e-03  -2.6918061452268247e-02  -1.4230900317196810e-02  -9.1949102250045572e-03  8.8340610550500728e-03  3.2791813475952260e-02  -2.3185715137448253e-02  1.0056148746337515e-02  -1.8474290533646506e-02  4.3813933004566421e-03  -1.2339387775745489e-02  8.9232812473542845e-03  -1.1495204178599505e-02  -1.2291020389843841e-02  -1.4587090747574073e-02  -1.5067868479624432e-02  -2.5722984964638519e-02  -1.6569528830831064e-02  -2.0769801716833892e-02  8.3717505370799021e-03  -8.9274305789213398e-03  -1.3328552035106215e-02  -2.3814163750879986e-02  -1.6660166151358517e-02  8.8077156515664577e-03  -1.2116814461582144e-02  -5.4540671218887291e-03  -6.7510768536089031e-03  1.0505677734605580e-01  -1.2176478989870480e-02  -1.6313154712135028e-02  -3.6951968462860516e-03  4.1065093344771306e-02  8.8070692206303394e-03  9.0394467357286686e-06  1.1025568644525854e-01  1.2190677805149182e-01  1.2674850351148118e-01  -2.6357844942864452e-02  4.9766299716617482e-03  -3.0738308638494971e-02  6.4481881182751836e-03  -2.8042400509295063e-02  -1.9488360872528348e-02  1.2451275471123630e-01  3.7376892061378154e-03  2.7508601769322921e-03  -1.9258457432867505e-02  1.2156540552966578e-01  6.8725404214314426e-03  7.8224301848818668e-03  -1.1155022426776472e-02  1.8135418213853529e-03  4.9636124916232474e-03  3.9105235221750766e-02  -3.1382770736964140e-02  8.4480360373381368e-03  1.1536350544639797e-01  3.8245025885994662e-02  -2.2707010298615580e-02  -2.2749591031818096e-02  3.0465177747019911e-02  -9.4335459536040445e-03  5.4375724366077932e-03  6.8601023353706395e-02  5.2857417436665719e-03  -1.2738773145446539e-02  4.6235030651484816e-04  1.3128522229042768e-03  1.0763407945433473e-01  1.8154105553330940e-02  -2.3439024120409390e-02  -4.1887061874473636e-03  4.3881029494168798e-02  2.7792862415814499e-02  6.6419363785208699e-02  7.7309569600474762e-03  -5.3582570314428648e-03  3.2195747286649376e-03  5.7116352771638974e-03  1.7792865341602532e-02  -2.2124983909646350e-03  2.4778084481825415e-02  2.8406392493581203e-02  4.5718330556734244e-02  5.3124115648998660e-02  2.8151707059767092e-02  -2.9638953756269720e-02  -4.8346703416478629e-03  6.0921975930888226e-03  2.9861297811537024e-02  9.3981753150849390e-03  -5.9330963187520201e-03  4.5433933604678615e-02  2.8907833921685736e-02  4.9858084433507456e-02  3.9714269230711946e-02  9.8154861571649200e-03  2.9621345100958721e-02  -2.3601933311828725e-02  2.0104233600078212e-02  9.7875838737472715e-02  2.4358228467670405e-02  2.7500653121035123e-02  4.5542390748946386e-02  -2.2758383207797467e-02  4.4890108129888515e-02  1.2391773938766817e-01  4.1342733608496073e-02  4.6066238751737102e-03  5.5056647422364227e-02  5.1734216922530822e-02  3.8224461983989107e-02  -2.8749598921976463e-03  3.3456454693011534e-02  5.0933391301481192e-04  3.3687136642438338e-02  -9.7171413680082613e-02  -9.4793406870595329e-02  -9.5516837651502040e-02  -9.6254982552284943e-02  -9.2387575348866435e-02  -9.3229387480609688e-02  -9.3832006941206331e-02  -9.3140974118590639e-02  -8.8376092496323042e-02  -8.5264610332304369e-02  -8.7304934089685010e-02  -8.7157292159982788e-02  -8.4934099314308176e-02  -9.5511234020981065e-02  -8.1676078158184187e-02  -5.3317680906150605e-02  -4.1761116535944623e-02  -4.2121488522645800e-02  -8.2759080733544724e-02  -4.6565677909676993e-02  -4.7406514443241871e-02  -9.0403084658944144e-02  -8.3678298371406987e-02  -7.4852187627384756e-02  -5.3018098912920766e-02  -7.1156220229823069e-02  -4.7634474849345056e-02  -8.0627276540103085e-02  -6.1654995379509379e-02  -8.6812708132372796e-02  -8.0704361037945038e-02  -7.6289890296981300e-02  -5.1321803972223641e-02  -6.3166776045186709e-02  -7.0234203868940484e-02  -5.8004408641755378e-02  -6.1575354681582817e-02  -2.9300196376751610e-02  -4.3286695182912019e-02  -3.6144366833140040e-02  -8.1270406855934521e-02  -5.5866124171971732e-02  -6.7900832784621917e-02  -7.2743667927868627e-02  -7.1525294275056453e-02  -1.9504686404294310e-02  -1.9140923512807970e-02  -7.3891754635901030e-02  -7.7588738965922860e-02  -5.7988858599532914e-02  -4.5834266914453213e-02  -4.3969047867864833e-02  -4.7084718220032344e-02  -4.2104438129095367e-02  -4.6452458319458170e-02  -4.5617531625296977e-02  -4.1371279305016155e-02  -3.8408816020880553e-02  -3.1204351742230803e-02  -2.9268594688026450e-02  -7.3449348121267438e-02  -7.6706113762790101e-02  -7.7228348349823658e-02  -7.8674628948517442e-02  -8.0128313385304864e-02  -7.8121679337014208e-02  -7.4635053353985098e-02  -7.8989532115532932e-02  -7.7773225373312216e-02  -8.1375850383259007e-02  -7.6632269898623734e-02  -9.4414215835318949e-02  -1.0605236610072996e-01  -1.0767358945704945e-01  -1.1955788889728262e-01  -1.2165215952229839e-01  -1.1745695978714049e-01  -1.3176500045558134e-01  -1.3280152704070897e-01  -1.3908399464650736e-01  -1.4014278134682415e-01  -1.3455720631054077e-01  -1.3819827462446621e-01  -1.3234461934461564e-01  -1.3827199868254697e-01  -1.3177331238778983e-01  -1.2539968090737885e-01  -1.1883906174492830e-01  -1.1958800163054167e-01  -1.1232467528615583e-01  -1.1576413142019466e-01  -1.0379835048531873e-01  -1.0497603607141404e-01  -9.5002033907128997e-02  -1.3635936739058499e-01  -1.3672581974963538e-01  -9.5011391045988172e-02  -8.7858829213445802e-02  -9.8320048713551128e-02  -1.3294093336148433e-01  -7.9264146412624803e-02  -1.2516967136656615e-01  -1.0961324518936331e-01  -7.2566743490883046e-02  -8.0511035079037091e-02  -6.8817340984393321e-02  -7.6846299304595939e-02  -6.8147430258238231e-02  -7.6786485311075348e-02  -7.0494375664617179e-02  -7.9416806092489675e-02  -7.4454792388801802e-02  -8.4336769015551274e-02  -8.1004625711594835e-02  -9.2669201064148041e-02  -8.9117279277577038e-02  -1.0177377978914247e-01  -9.7652354176720843e-02  -1.1222083068794772e-01  -1.0609338046801361e-01  -1.2174652535450552e-01  -1.1257018524457668e-01  -1.2829332934331497e-01  -1.3043485786774425e-01  -1.3722259182378266e-01  -1.3064536094494034e-01  -1.3795276001633594e-01  -1.4067669461190571e-01  -1.3985854016345245e-01  -1.4050677636332778e-01  -1.2638757540603587e-01  -1.3774600921756847e-01  -1.3806381425926290e-01  -1.2972678624037193e-01  -1.1303889115651780e-01  -1.0654654507232260e-01  -1.3209104802699542e-01  -1.3370440105206732e-01  -1.3236666414653134e-01  -1.2964412962789143e-01  -1.2574025566119076e-01  -1.2909450417984553e-01  -1.2479408171046927e-01  -1.2318496073254692e-01  -1.2280245938829211e-01  -1.1580071855803979e-01  -1.1594495575035756e-01  -1.1986765587692261e-01  -1.1832594113918765e-01  -1.1573632260537553e-01  -1.1884423499282958e-01  -1.1363540258057915e-01  -1.1842360505770963e-01  -1.1798133949663653e-01  -1.2190515152225487e-01  -1.1528531687525402e-01  -1.2384462378994159e-01  -1.2303578735346622e-01  -1.2886626145396654e-01  -1.2395236164100293e-01  -1.3213435159926179e-01  -1.3083777945313291e-01  -1.3665776536933427e-01  -1.3281698876819684e-01  -1.3903661160162209e-01  -1.3708448436479470e-01  -1.4053608130350442e-01  -1.3712329375972682e-01  -1.3811415770955179e-01  -1.3721448335291273e-01  -1.2964930571413699e-01  -1.3347573812124586e-01  -1.3020693989683071e-01  -1.2404634738752517e-01  -1.2011846097421872e-01  -1.2714968979981589e-01  -1.1771706976668113e-01  -1.2303005104906546e-01  -1.1106208505013303e-01  -1.0728762088391154e-01  -1.1059412893817133e-01  -1.0886348419092647e-01  -1.2348242840382057e-01  -1.1240355753520845e-01  -1.0157397340680428e-01  -9.6969527645301021e-02  -4.9124869819546405e-02  -9.7029690912778063e-02  -1.2930805801906944e-01  -1.1516177562193933e-01  -1.1742592132676628e-01  -1.1314091019723913e-01  -1.0675147327269269e-01  -1.1529313718494057e-01  -8.9917597996544196e-02  -9.1992353133596286e-02  -8.6429885964046785e-02  -9.3949644270943627e-02  -7.9532625256551179e-02  -1.0746770667583604e-01  -1.0308084598572884e-01  -1.1122613027253533e-01  -8.6907687906463554e-02  -6.5389891109847276e-02  -1.0358672610152275e-01  -1.0140375509202160e-01  -1.1427852327444921e-01  -1.3264494298491927e-01  -1.2799073944955214e-01  -1.2826631638325503e-01  -1.2191818266270880e-01  -1.2446135519278542e-01  -1.1911146630760787e-01  -1.1948123883140778e-01  -1.2052692532852982e-01  -1.1912927383959189e-01  -1.1575355912792723e-01  -1.1920948347952706e-01  -1.1486543738328601e-01  -1.1743080425568445e-01  -1.1793821072302108e-01  -1.2113308246997041e-01  -1.1412175732952411e-01  -1.2054011036335587e-01  -1.2229962179335536e-01  -1.2667201301466749e-01  -1.1990274961871233e-01  -1.2844847537031542e-01  -1.2933445336155067e-01  -1.3475808943235942e-01  -1.2978586326774180e-01  -1.3738842647267857e-01  -1.3715954586595078e-01  -1.4114395985217876e-01  -1.3686852013882117e-01  -1.4075769223008586e-01  -1.4055082191541826e-01  -1.3908864045518798e-01  -1.3577559367162786e-01  -1.3261782958708437e-01  -1.3385927035668965e-01  -1.2781602590674365e-01  -1.2201886389502831e-01  -1.1725652033745329e-01  -1.2443281185212753e-01  -1.1950663080524850e-01  -1.1696709733856060e-01  -1.1699450972496873e-01  -1.1143382150832161e-01  -1.0837582632985368e-01  -1.0555522711789078e-01  -1.0650570853498302e-01  -9.8886380746627547e-02  -9.4984908743102614e-02  -9.4927312867010921e-02  -8.9017569655329767e-02  -1.0646595654383463e-01  -1.0310554941083908e-01  -1.1357898446510284e-01  -9.9319313029942194e-02  -9.0219485435889493e-02  -9.0136215455734192e-02  -1.1795080436519506e-01  -9.0407602900221776e-02  -1.0025625051169522e-01  -8.2894188189697293e-02  -1.0286719846782982e-01  -9.9670061599105644e-02  -8.9037708288364076e-02  -1.0856547293841219e-01  -8.3234587417040082e-02  -7.7351888184691978e-02  -8.1244192249652167e-02  -7.9619142961653414e-02  -7.8864888684794923e-02  -1.0874939617088018e-01  -9.0372572295166778e-02  -9.6326629519959975e-02  -1.0273316619341771e-01  -1.0698683489904587e-01  -9.883