<?xml version="1.0"?>
<VTKFile type="UnstructuredGrid"  version="0.1"  >
<UnstructuredGrid>
<Piece  NumberOfPoints="1078" NumberOfCells="2058">
<Points>
<DataArray  type="Float64"  NumberOfComponents="3"  format="ascii">0 0 0  0 1 0  1 1 0  1 0 0  1.1 -0.1 0  -0.1 -0.1 0  1.1 1.1 0  -0.1 1.1 0  0.5388751026012345 0.594441730406954 0  0 0.9499999999997918 0  0 0.8999999999995836 0  0 0.8499999999996529 0  0 0.7999999999999998 0  0 0.7500000000003466 0  0 0.7000000000006934 0  0 0.6500000000010401 0  0 0.6000000000013869 0  0 0.5500000000017335 0  0 0.5000000000020587 0  0 0.4500000000018723 0  0 0.4000000000016644 0  0 0.3500000000014564 0  0 0.3000000000012483 0  0 0.2500000000010403 0  0 0.2000000000008322 0  0 0.1500000000006241 0  0 0.100000000000416 0  0 0.05000000000020799 0  0.04999999999989965 0 0  0.09999999999981467 0 0  0.1499999999997036 0 0  0.1999999999995579 0 0  0.2499999999994121 0 0  0.2999999999992664 0 0  0.3499999999991206 0 0  0.3999999999989749 0 0  0.4499999999988292 0 0  0.4999999999986943 0 0  0.5499999999988151 0 0  0.5999999999989468 0 0  0.6499999999990784 0 0  0.69999999999921 0 0  0.7499999999993417 0 0  0.7999999999994734 0 0  0.8499999999996051 0 0  0.8999999999997368 0 0  0.9499999999998684 0 0  1 0.04999999999989965 0  1 0.09999999999981467 0  1 0.1499999999997036 0  1 0.1999999999995579 0  1 0.2499999999994121 0  1 0.2999999999992664 0  1 0.3499999999991206 0  1 0.3999999999989749 0  1 0.4499999999988292 0  1 0.4999999999986943 0  1 0.5499999999988151 0  1 0.5999999999989468 0  1 0.6499999999990784 0  1 0.69999999999921 0  1 0.7499999999993417 0  1 0.7999999999994734 0  1 0.8499999999996051 0  1 0.8999999999997368 0  1 0.9499999999998684 0  0.9499999999997918 1 0  0.8999999999995836 1 0  0.8499999999996529 1 0  0.7999999999999998 1 0  0.7500000000003466 1 0  0.7000000000006934 1 0  0.6500000000010401 1 0  0.6000000000013869 1 0  0.5500000000017335 1 0  0.5000000000020587 1 0  0.4500000000018723 1 0  0.4000000000016644 1 0  0.3500000000014564 1 0  0.3000000000012483 1 0  0.2500000000010403 1 0  0.2000000000008322 1 0  0.1500000000006241 1 0  0.100000000000416 1 0  0.05000000000020799 1 0  -0.1 1.05000000000004 0  -0.1 1.000000000000079 0  -0.1 0.9500000000001624 0  -0.1 0.9000000000003032 0  -0.1 0.850000000000444 0  -0.1 0.8000000000005848 0  -0.1 0.7500000000007256 0  -0.1 0.7000000000008665 0  -0.1 0.6500000000010508 0  -0.1 0.6000000000012352 0  -0.1 0.5500000000014196 0  -0.1 0.500000000001539 0  -0.1 0.4500000000014195 0  -0.1 0.4000000000013 0  -0.1 0.3500000000011588 0  -0.1 0.3000000000010178 0  -0.1 0.2500000000008986 0  -0.1 0.2000000000007579 0  -0.1 0.1500000000006174 0  -0.1 0.1000000000005272 0  -0.1 0.05000000000040083 0  -0.1 2.671196597248127e-13 0  -0.1 -0.0499999999998666 0  -0.0500000000000906 -0.1 0  -1.730560139634463e-13 -0.1 0  0.04999999999975802 -0.1 0  0.09999999999961506 -0.1 0  0.1499999999994613 -0.1 0  0.199999999999302 -0.1 0  0.2499999999991446 -0.1 0  0.2999999999990088 -0.1 0  0.3499999999988296 -0.1 0  0.3999999999986936 -0.1 0  0.4499999999985143 -0.1 0  0.4999999999984002 -0.1 0  0.5499999999985247 -0.1 0  0.5999999999986493 -0.1 0  0.6499999999987955 -0.1 0  0.6999999999989417 -0.1 0  0.7499999999990659 -0.1 0  0.7999999999992116 -0.1 0  0.8499999999993573 -0.1 0  0.8999999999994526 -0.1 0  0.949999999999584 -0.1 0  0.9999999999997226 -0.1 0  1.049999999999861 -0.1 0  1.1 -0.0500000000000906 0  1.1 -1.730560139634463e-13 0  1.1 0.04999999999975802 0  1.1 0.09999999999961506 0  1.1 0.1499999999994613 0  1.1 0.199999999999302 0  1.1 0.2499999999991446 0  1.1 0.2999999999990088 0  1.1 0.3499999999988296 0  1.1 0.3999999999986936 0  1.1 0.4499999999985143 0  1.1 0.4999999999984002 0  1.1 0.5499999999985247 0  1.1 0.5999999999986493 0  1.1 0.6499999999987955 0  1.1 0.6999999999989417 0  1.1 0.7499999999990659 0  1.1 0.7999999999992116 0  1.1 0.8499999999993573 0  1.1 0.8999999999994526 0  1.1 0.949999999999584 0  1.1 0.9999999999997226 0  1.1 1.049999999999861 0  1.05000000000004 1.1 0  1.000000000000079 1.1 0  0.9500000000001624 1.1 0  0.9000000000003032 1.1 0  0.850000000000444 1.1 0  0.8000000000005848 1.1 0  0.7500000000007256 1.1 0  0.7000000000008665 1.1 0  0.6500000000010508 1.1 0  0.6000000000012352 1.1 0  0.5500000000014196 1.1 0  0.500000000001539 1.1 0  0.4500000000014195 1.1 0  0.4000000000013 1.1 0  0.3500000000011588 1.1 0  0.3000000000010178 1.1 0  0.2500000000008986 1.1 0  0.2000000000007579 1.1 0  0.1500000000006174 1.1 0  0.1000000000005272 1.1 0  0.05000000000040083 1.1 0  2.671196597248127e-13 1.1 0  -0.0499999999998666 1.1 0  0.5709264309097294 0.5886476043044115 0  0.5989152116758166 0.5688758839531456 0  0.6090993960725722 0.5363146037762816 0  0.6109405080505598 0.5037703160066325 0  0.6099341203794615 0.4715623807444073 0  0.6059827867989761 0.4396004418127563 0  0.5987231808243708 0.407838775180648 0  0.5873412797030089 0.3766200491621548 0  0.5695756497050006 0.3474392975456689 0  0.5418615242107024 0.3269985894832551 0  0.5096578657593437 0.3258785211342196 0  0.4799722247259308 0.3338092168287174 0  0.4521223440890962 0.3445904789138693 0  0.4252761357436609 0.3569552852210209 0  0.3992376788490693 0.3704118572640016 0  0.3738642617190556 0.3847075027032666 0  0.349043796240661 0.3997002809840223 0  0.3248287361127642 0.415408720560655 0  0.3011962137261633 0.431888133291503 0  0.2783134029940222 0.4493101546529076 0  0.2566704981806147 0.4682420877723183 0  0.2383755924314515 0.4908865008110618 0  0.2441126628004211 0.5189116838317787 0  0.2709408243597715 0.5368902583629031 0  0.2993642657782044 0.5500702089088619 0  0.3282179340096202 0.5608980352467631 0  0.35741177331332 0.5700578161547935 0  0.3868550172290877 0.5778400392150068 0  0.4165409669411691 0.5842840846259233 0  0.4465333522947343 0.5893647179333484 0  0.4768262224580436 0.5930034045182438 0  0.5075444591435377 0.5949051927860591 0  0.5797800296702408 0.4580626506049966 0  0.4263156432254488 0.391355083095023 0  0.4684915135775157 0.5600243543651167 0  0.3518070482408905 0.4324931554608219 0  0.4035856175773028 0.5522126727325328 0  0.4805539275415416 0.3685253465432451 0  0.5255826464645675 0.5641617632047545 0  0.3462613960454078 0.5373090898235997 0  0.5656498543489512 0.3977678534329189 0  0.3062313606095343 0.4652764504358127 0  0.5803117382738376 0.52006947971539 0  0.5344652160035553 0.3529019180880959 0  0.2912008629496642 0.5161999076901841 0  0.2644819951786104 0.5020912329801244 0  0.576240618394156 0.5527449697440061 0  0.5468213132023281 0.5371082642145285 0  0.5546908574382104 0.5018360323035184 0  0.5247142620535491 0.5134729508238358 0  0.5292796743486055 0.4812140334411503 0  0.499859099266475 0.4918815536251466 0  0.5044272510625708 0.4586659502393755 0  0.4749705501077949 0.46944776930188 0  0.4788532925586264 0.4362485814647962 0  0.4498492396652059 0.4466527591457038 0  0.4459461321994038 0.4800814329517067 0  0.4212175519157001 0.4568476185722523 0  0.508313843190569 0.4256865975952868 0  0.4176413060249635 0.4900046698863809 0  0.3942551829684204 0.4670307118816698 0  0.3910080359919313 0.4986288096763274 0  0.4412587447935824 0.5137940921445315 0  0.3984778299085147 0.4347321710991698 0  0.3678231080497144 0.476687044789472 0  0.4921661242108842 0.5279624734099605 0  0.4812341594955724 0.403153924007479 0  0.5080905153888561 0.3925541103358472 0  0.5326459318777844 0.4497907983716118 0  0.4704430278235836 0.5029959857882588 0  0.5409412912105159 0.4180428660470732 0  0.4526750444997452 0.4137800852786379 0  0.4249075055452425 0.4242611353863477 0  0.4364802687769942 0.5503819049348483 0  0.3747962743335365 0.54567057514927 0  0.4978597608782143 0.5632694219014457 0  0.3280479398198763 0.4475281054390936 0  0.3370900275104582 0.4805402729360789 0  0.4531071740793901 0.3797619692204299 0  0.3635902817612579 0.5109733227537062 0  0.3185582889586557 0.5287347182721108 0  0.2847134203321426 0.4830416791646123 0  0.3995314720217197 0.4032371294088696 0  0.5749897083759059 0.4276106882877945 0  0.5821004231178777 0.4882644618668269 0  0.4148418939369958 0.5216518274149001 0  0.3105931340861689 0.4973079092079103 0  0.5589191396584212 0.3725769718738121 0  0.3748319900572801 0.4166677964275243 0  0.5083725492993507 0.3603382594961652 0  0.4632350195088857 0.5309236338385087 0  0.5367273175151468 0.3851080922303662 0  0.5562919038336255 0.4715486124149488 0  0.3352858827133662 0.5110088883274156 0  0.3737210423011972 0.4467844345475178 0  0.5165154075915183 0.5400725040922314 0  0.5510278832620386 0.5677817485090357 0  0.3896187800877398 0.5258639751765842 0  0.5570000618843465 0.4450314402631499 0  0.349476437247796 0.457242862089108 0  0.6075019657656346 0.386764716623176 0  0.6274013722153082 0.4871624462369833 0  0.3675284239655076 0.5906572815010469 0  0.5526735290868954 0.6080494981870362 0  0.9910442841361009 0.7108420582612545 0  0.652418634282414 0.9930485107631153 0  0.4575202578796579 0.6090575232031026 0  0.9968696866438694 0.5459070206813857 0  0.9856681987442719 0.2809237399194431 0  0.2916586942596963 0.9813319484352241 0  0.3508063094206719 0.37419111053589 0  0.4287058239707286 0.3316137663912436 0  0.4488701513910214 0.9907582454311136 0  0.2802446375481384 0.5591415426385866 0  0.06561187787339773 0.7570431707037701 0  0.709967919962695 0.05400290334123304 0  0.2766049546075954 0.4228991373577728 0  0.6200276840861337 0.5537231569811909 0  0.8085141564714918 0.9917321017429632 0  0.2485533761929655 0.05867949957424504 0  0.06879071464566554 0.2478107764474523 0  0.2347336570291766 0.4625510376394401 0  0.5631892198118555 0.06103628814811243 0  0.4079730961431594 0.05845642069288574 0  0.8514712274746714 0.04834611941361062 0  0.2228609028173063 0.5056982893769345 0  0.4894569675552353 0.3134999438948468 0  0.06569658127528744 0.6038710185216852 0  0.9936174096259336 0.8562839010284545 0  0.06539658281601739 0.3466319925700041 0  0.6114919331675549 0.5809195309431597 0  0.6335783325728954 0.568404620838554 0  0.626
[...]
<PointData  Scalars="u"> 
<DataArray  type="Float64"  Name="u"  format="ascii">-5.7944345891872649e-19  -1.8569770587333933e-18  1.3896545777451464e-18  -4.9860002646467424e-19  1.3812014717066730e-20  -7.4486631846345232e-21  -8.2806456090287549e-20  1.0143518933307810e-19  -4.2489861135087148e-01  2.3809316539665849e-18  -5.0972696333244472e-18  -3.3792881133504961e-17  2.7118024478290099e-18  1.2113100756032239e-17  -1.4382992943398053e-17  -1.0103632641275437e-17  4.7805235705654486e-18  2.1219390626711709e-17  -1.5525997048210925e-17  -1.7189675359281601e-17  -1.4356145848591852e-17  -3.6229271912327433e-18  9.3936933486857290e-18  4.5579938796559515e-18  6.2543678362446255e-18  -2.8619794303057936e-18  -9.6634470659002435e-18  -3.7463719172507465e-19  -1.1669385037711882e-17  -1.2271514509810644e-17  -5.4838832655259403e-18  -2.3132688095348816e-17  -1.2549380786179844e-17  -4.0158130560317239e-17  4.8684232027892589e-17  1.4750039077164698e-17  -2.0284614178350804e-17  4.8931970964517590e-17  -2.7469667746441325e-17  -8.4729628620402708e-18  -5.6556373061333194e-17  -5.4295241500997269e-18  1.8608294045046700e-17  -3.7238229626358097e-17  -4.9179334246883265e-18  6.1131883462862319e-18  1.0995102219193469e-19  -2.7586970291720313e-18  -1.2690262412866440e-17  1.0564303948608117e-17  5.2274587946989603e-18  1.4033397290188429e-17  1.5762324288274302e-17  -1.1865764570356241e-18  -1.0182047576002088e-19  -7.4867843279602572e-18  4.8613698144836967e-18  -5.1419474146874143e-18  -9.5523248036397076e-18  -2.1355861606041612e-18  2.8937819810260077e-19  -6.8959625997946808e-18  3.3043438380603095e-18  5.5257684736782433e-18  -3.3994179967960289e-19  -2.8523309839512164e-19  -4.1004386413663115e-18  3.5354538687501171e-18  -6.1622161306431560e-18  -7.1808004603941598e-18  7.5863122001655427e-18  9.8375693487746213e-18  9.2995238454801087e-18  -2.9003012051248527e-17  -1.6767682694140487e-17  4.1623184982759638e-18  -6.9988952565533235e-18  -3.5843794572793524e-18  1.3260334127851296e-17  1.6257957190008007e-17  -3.8858652363721235e-18  -2.2990377066745661e-17  7.0280905118511294e-18  1.8185438109797875e-18  2.1973417558433900e-18  -7.6534357937983218e-20  -1.7198862951015783e-19  5.0604292578659940e-19  -1.5547644137345411e-18  -3.7063034704848924e-18  1.0452755109397273e-19  5.9054601288551801e-19  -2.5321668711525802e-18  -1.4244312478621298e-18  1.0383618510805694e-18  2.3747485734240330e-18  -7.1293960895461164e-19  -3.0385777138725608e-18  -1.9870099852880631e-18  -2.5418975862212254e-20  -4.5407125297884310e-19  1.0552625919485331e-18  7.5147004632985539e-19  -5.0427601387236087e-19  -2.1512176056302604e-19  -6.5004923386152900e-19  1.4160576228235607e-19  -7.6226620040322461e-20  1.2598487452189854e-19  -3.5917569378253848e-19  -1.4913035353110596e-18  -1.5027220654394589e-18  -1.5169834585877725e-18  -2.2442841876746260e-18  -4.2454748034687247e-18  -5.5326127794428767e-19  4.8825624438774318e-18  1.9749517206586210e-18  1.1713136909919363e-20  1.9275026489517966e-18  -8.6783459950812313e-19  -3.8847732513229890e-18  -6.2390871157078284e-18  3.8847003451879542e-19  1.6739396441893613e-18  -3.6239356942788904e-18  -1.7928261379752346e-18  1.3695468842232172e-18  2.5037699579516992e-19  -1.8369552594059960e-19  1.7753662783268777e-20  -2.9192768847272107e-20  9.1980804101609159e-20  -9.1681679280839070e-19  -6.3366791957535354e-19  8.2370907417983778e-19  1.1720904136570016e-18  2.1390452960103857e-18  9.4319891685336246e-19  5.2108993125390899e-20  -4.1744159037269917e-19  -5.4332964926820769e-19  3.8959490317071561e-19  -7.0336268137163513e-19  -1.3976638449952400e-18  4.8209643246563620e-19  -4.1878855464903328e-19  -6.7727235998549046e-19  3.8784412556503202e-19  1.0663570619703978e-18  -3.8753052691350565e-20  -3.3200649502163616e-20  1.3635968534477215e-19  3.2285904166236343e-20  1.0899136147164956e-19  -4.0083074890693832e-20  -1.5271447160780333e-19  9.5871990436095798e-20  -7.4831286421617375e-19  -7.8903177283498830e-19  6.8390310385396848e-19  1.9275828441948940e-18  4.2368747683465809e-19  -3.3214756854549165e-18  -2.4737878830470671e-18  1.3320637027111147e-19  -5.9400293035331404e-19  -7.1812936698670515e-19  1.5282365758580154e-18  2.3908207635890084e-18  -9.0444759534316276e-19  -2.3084065930218924e-18  -4.5723006131954293e-20  8.4473261388128584e-19  1.1547780645739635e-20  -1.7871006344690381e-19  -5.8629322390014708e-20  -4.3143747836261614e-01  -4.3336375289720835e-01  -4.2842745084539480e-01  -4.2222926140267103e-01  -4.1699007497140922e-01  -4.1267414060308394e-01  -4.0879577161938674e-01  -4.0493702075245563e-01  -3.9975866202070132e-01  -3.9231556106667842e-01  -3.8480437990367899e-01  -3.7866659256800361e-01  -3.7367410705364035e-01  -3.6942172111286870e-01  -3.6553684332352093e-01  -3.6182964609106127e-01  -3.5807497058309545e-01  -3.5418068420607152e-01  -3.4969026974146966e-01  -3.4524812882072209e-01  -3.4014873581161953e-01  -3.3567498237826676e-01  -3.4181814221627227e-01  -3.5467336571407482e-01  -3.6473028488672377e-01  -3.7333112871392093e-01  -3.8130703778068076e-01  -3.8858259933476752e-01  -3.9566055817502854e-01  -4.0268590642232938e-01  -4.0983028904863089e-01  -4.1709168823514498e-01  -3.8185044877352303e-01  -3.4222652132340414e-01  -3.7080152969630858e-01  -3.3419508371128825e-01  -3.5758714394115626e-01  -3.5394852463600746e-01  -3.8856431379964440e-01  -3.4686463842449722e-01  -3.7628911707453677e-01  -3.3257116354178534e-01  -3.9405915617223142e-01  -3.7198693922837556e-01  -3.3854190377232019e-01  -3.3294557917492035e-01  -4.0351079014069008e-01  -3.8437210119117471e-01  -3.7484819897644139e-01  -3.6301546270725910e-01  -3.5580717725668282e-01  -3.4571484909550820e-01  -3.4274089375827077e-01  -3.3567172938836370e-01  -3.3537754309418516e-01  -3.2989992811294938e-01  -3.3097506740493193e-01  -3.2723185859331300e-01  -3.4434181718578522e-01  -3.2992475183013770e-01  -3.2662173909507725e-01  -3.3171601059951050e-01  -3.4130432105375763e-01  -3.3085636749339348e-01  -3.2790972404275004e-01  -3.5824055681496780e-01  -3.4269076218720085e-01  -3.5301364541175273e-01  -3.5509822536279895e-01  -3.4171456571042946e-01  -3.6101897049095633e-01  -3.3636460179379651e-01  -3.3254398765749626e-01  -3.5987849386741017e-01  -3.5230250443933986e-01  -3.7946145762568789e-01  -3.3237159575523323e-01  -3.3085687672104436e-01  -3.4702737665231942e-01  -3.3586993183337666e-01  -3.4267765895360736e-01  -3.3326646467924853e-01  -3.3894737179246931e-01  -3.7856734667852165e-01  -3.8690163291770191e-01  -3.4256421661995345e-01  -3.3538311879884902e-01  -3.7713030510462159e-01  -3.3640733760462760e-01  -3.6261338300731671e-01  -3.5356337962953882e-01  -3.6561815606686521e-01  -3.6974563397343907e-01  -3.3696978773929964e-01  -3.3009815435478546e-01  -3.7284643286544489e-01  -3.9971838373329427e-01  -3.4336582762454576e-01  -3.6847045344316021e-01  -3.3007549462919072e-01  -4.2497814822615265e-01  -4.3831536735432081e-01  -4.0434008345639061e-01  -4.4543472594417349e-01  -2.3217401638945249e-02  -1.8814727908306645e-02  -4.2587425351180097e-01  -8.8956062731228372e-03  -3.5807014654552605e-02  -4.6617125054310385e-02  -3.7681187610621564e-01  -3.8775091204924245e-01  -2.5830941396641806e-02  -3.7634576382484863e-01  -1.3693265700880944e-01  -1.2473982047151455e-01  -3.6119523204882054e-01  -4.4807437517179466e-01  -1.7947213187369408e-02  -1.2152616626979088e-01  -1.3807041494534178e-01  -3.4716453237825173e-01  -1.4931351817538274e-01  -1.3988456602218680e-01  -8.3801867429540142e-02  -3.4451503271238465e-01  -3.9572531668388689e-01  -1.5265264145807625e-01  -1.2118768844960858e-02  -1.4550048263657733e-01  -4.5121469289258792e-01  -4.5142709179793045e-01  -4.5412570031930122e-01  -4.5435302004009531e-01  -4.5665146958374042e-01  -4.5539158028331789e-01  -4.5642808400423612e-01  -4.5236079205247792e-01  -4.5086283069616856e-01  -4.5488991976987453e-01  -4.5110713054234203e-01  -4.4586450273749351e-01  -4.4887264850206771e-01  -4.4154784444537498e-01  -4.3615545420655705e-01  -4.3695043002816797e-01  -4.2016021105220630e-01  -4.1757556925679251e-01  -4.1822309093496335e-01  -4.3406861473354053e-01  -4.1230325778637655e-01  -4.2817453309940767e-01  -4.0334526953400818e-01  -4.1977968495274603e-01  -3.9217931554516589e-01  -4.0955854759908206e-01  -3.9720641253924099e-01  -3.9269554231088560e-01  -3.7880645901037391e-01  -3.9695439408875233e-01  -3.8179441908166473e-01  -3.6750579443376441e-01  -3.6104140997814577e-01  -3.6285679229686291e-01  -3.8143418851904209e-01  -3.3149402929427618e-01  -3.2316380459129140e-01  -3.4631480353247773e-01  -4.0885006564660270e-01  -3.9362108348276081e-01  -3.6306083161677094e-01  -3.7463614976256976e-01  -3.4112382218650439e-01  -3.0472349708740665e-01  -3.2102222101219507e-01  -3.9866938803271995e-01  -3.7842645310951406e-01  -3.3174292051053261e-01  -4.3070387866760762e-01  -3.9680374217286801e-01  -3.7412296453029154e-01  -3.3738296541932455e-01  -2.7960063067713625e-01  -8.4454118887290403e-02  -2.5801178300357908e-01  -2.1138164890363013e-02  -4.6864575874192623e-03  -3.1664997017107906e-02  -4.1377337384116919e-02  -4.1210520564292263e-01  -3.5077525021019895e-01  -3.3696188599190097e-01  -3.4322600524510299e-01  -3.2371996619062066e-01  -3.1802599601227177e-01  -3.2932950205479383e-01  -4.5571110927555014e-01  -2.9077475666623132e-01  -3.5214587096935007e-01  -3.1811288781534519e-01  -1.0875104352888341e-01  -3.4346035616910831e-01  -2.8330636362343736e-01  -3.8826348681977918e-01  -3.5084510235995714e-01  -3.3603425385677399e-01  -2.3164717239970481e-01  -3.1742042675581777e-01  -4.4390434722178584e-01  -2.9846519392898380e-01  -2.9766526510876667e-01  -3.6764565683803174e-01  -3.3125612472333077e-01  -2.8423560115332258e-01  -2.8715972833314718e-01  -3.3315542707119905e-01  -2.8614022516100179e-01  -3.3219744473419849e-01  -2.8301486566227418e-01  -3.2903625451085627e-01  -2.7637932149559669e-01  -3.2320494229602303e-01  -2.6907058336017903e-01  -3.1558767942660082e-01  -3.6151472001026014e-01  -3.5409169960140596e-01  -3.0846536821177212e-01  -3.4585293972576842e-01  -3.8349326826972324e-01  -3.7527700210847936e-01  -3.3637495996546068e-01  -3.6436744458762788e-01  -3.2451649269532112e-01  -3.4868131355330079e-01  -3.8291793778200245e-01  -3.0973884407431063e-01  -3.6374908718248777e-01  -4.1099766618209632e-01  -3.9215933525607216e-01  -4.1086833500982683e-01  -3.6949353945449148e-01  -3.9341865369704598e-01  -3.6659034135184132e-01  -3.8763588956299377e-01  -3.4013475781029412e-01  -2.9126402520761541e-01  -4.1155092114301972e-01  -3.5562782558454636e-01  -3.7951297200319317e-01  -2.8458183506616824e-01  -2.6187109623803573e-01  -2.3214112680040813e-01  -1.6891926004693733e-02  -2.0699452364027857e-01  -1.8120280016420343e-01  -3.7097496086723569e-01  -4.0464699709796925e-01  -4.0808643069912692e-01  -4.0142474693837815e-01  -4.1439976267159512e-01  -1.9344822515740293e-01  -2.3673199541215431e-01  -3.1221949201026350e-01  -2.8548920492606034e-01  -3.0644173359628119e-01  -4.5137370315209335e-01  -2.2166278655882965e-01  -3.2322780859180056e-01  -2.7016795267546423e-01  -2.6076954625042398e-01  -3.0544960408256516e-01  -3.0346027692535882e-01  -3.3850283878765275e-01  -3.5840624868494936e-01  -3.2644195123870012e-01  -2.4373014652352123e-01  -2.1374408188134572e-01  -2.0498326569255351e-01  -2.6924926670901161e-01  -9.9966214354714478e-02  -2.7551375466367339e-01  -3.0608339978999621e-01  -2.7279270363638014e-01  -3.0648410126011882e-01  -3.5884955745498004e-01  -4.0986465755761853e-01  -2.0120418007366345e-01  -2.7417227832138436e-01  -2.8355580400202052e-01  -2.0214058542538399e-01  -1.5451474147418170e-01  -1.6627478933790635e-01  -1.3294671144125653e-01  -4.5481188007058060e-01  -2.3692210248394793e-01  -2.4182437637547521e-01  -3.1246175348277960e-01  -4.0479015280878849e-01  -4.1181428853923646e-01  -4.2533893196123940e-01  -4.3072428223800069e-01  -4.3737667371371503e-01  -4.4148823418274746e-01  -4.3540704502814764e-01  -4.4195714664897084e-01  -4.3829973633599106e-01  -4.3844010311658244e-01  -4.3527908166169371e-01  -4.3401869571362089e-01  -4.3155834101008761e-01  -3.1336352972447240e-01  -3.3618240110396674e-01  -2.8420642440144400e-01  -3.9151298120138830e-02  -4.7015535198797122e-02  -4.1688127541449099e-01  -4.1020393644308129e-01  -3.7145109793963627e-01  -3.5210334988724629e-01  -3.1172851488196701e-01  -3.3144440810970455e-01  -3.6437342367330344e-01  -3.4699510219021384e-01  -3.7658918476561809e-01  -3.5923608545115621e-01  -3.7987119256455032e-01  -3.6647799348413707e-01  -3.3898232457125921e-01  -3.4816681056965121e-01  -3.7087353033258219e-01  -3.5308568375588995e-01  -3.7113880322671255e-01  -3.5258009922445049e-01  -3.6669846574872056e-01  -3.4576608274501497e-01  -3.2618060820855371e-01  -3.5690502333628382e-01  -3.3174499479595138e-01  -3.1197793285479292e-01  -3.4054473369278698e-01  -3.0920686339338105e-01  -2.9877839828432456e-01  -3.8367383682585138e-01  -3.7224331008017258e-01  -3.0400737530614086e-01  -4.2071660090143975e-01  -2.3623315084493923e-01  -1.4214911614237255e-01  -1.5125923689341156e-01  -1.6990156257081887e-01  -3.1555722314514023e-01  -3.4551845839241124e-01  -2.7546597630631492e-01  -3.2259752503009770e-01  -2.9763777307879014e-01  -1.7178218515569046e-01  -4.2860308440346012e-01  -3.8849049092400684e-01  -3.8851723893543216e-01  -4.3383267293887112e-01  -4.4546365907785429e-01  -1.8659570229511113e-01  -1.1210129937280071e-01  -4.2283888169518508e-01  -1.5465245848961699e-02  -2.7070987499006927e-01  -2.4427690548576453e-01  -2.0738692199040182e-01  -1.7991838724670134e-01  -3.3060898418429530e-01  -4.0994292774415214e-01  -2.9580698605792816e-01  -2.5860096099613561e-01  -2.7892435775832330e-01  -1.9712334506490892e-01  -1.9562418093034650e-01  -1.5435621751966394e-01  -1.4107531799190864e-01  -1.3334970304890445e-01  -1.1111579260855321e-01  -1.1267895358593268e-01  -1.7190140783203500e-01  -1.3502323605038449e-01  -1.9837038618828692e-01  -1.2696972589276262e-01  -1.8977444530938020e-01  -1.1878423527410970e-01  -1.8231104027746514e-01  -3.6777869737523777e-01  -3.7620750013950771e-01  -3.6596243763041758e-01  -3.8184114892567977e-01  -3.8973667395610923e-01  -3.9362224607405200e-01  -4.0146172022258964e-01  -4.0322488187889577e-01  -4.1143666287105707e-01  -4.1195632102479990e-01  -4.1989760999316156e-01  -4.2001277889716254e-01  -4.2694979195932126e-01  -4.2745093887814428e-01  -4.3400936235056692e-01  -4.3459523795268401e-01  -4.4014031444696422e-01  -4.4183544599481711e-01  -4.4508999560593870e-01  -4.4708430474380373e-01  -4.3639848847448426e-01  -4.4281530477291281e-01  -4.4828643971858184e-01  -4.5114579483286893e-01  -4.5274306428469280e-01  -2.5236710389995631e-01  -1.6719663824242095e-01  -3.1162591943362528e-01  -2.2127007346306804e-01  -4.1960143637050595e-01  -3.9931348125928517e-01  -2.7012203955255393e-01  -2.7770956468941849e-01  -1.1667063089024217e-01  -3.2811557223381599e-01  -4.0787896941617263e-01  -1.9612568898077104e-01  -2.0804659995241637e-01  -3.9459305758870578e-01  -3.9190695394709296e-01  -3.1410435006087323e-01  -3.2630262212048289e-01  -3.9484008155130534e-01  -6.7256468334960073e-02  -2.7242185201523200e-01  -1.7831470136315847e-01  -5.9738342304827059e-02  -4.3643448894967390e-01  -5.3115583859632484e-02  -4.2710761907588196e-01  -2.1878934735520045e-01  -2.4272796289676338e-01  -2.9148281209234500e-01  -2.5546091400663573e-01  -1.7385475872367423e-01  -4.3639441254503353e-01  -2.3399930552013473e-01  -4.3038775098847887e-01  -4.2478968812633539e-01  -4.5003597708271692e-01  -4.0190012957306320e-01  -1.1531404786804041e-01  -1.0099733804419378e-01  -4.3802508243719168e-01  -1.0378132816415873e-01  -1.6895332059656740e-01  -9.1894080780158621e-02  -4.5429882742233335e-01  -4.4374572147466185e-01  -4.4246118194169104e-01  -3.9353694636510572e-01  -3.9007259333147004e-01  -3.8991794778508249e-01  -1.3448090896902803e-01  -1.6341849662053984e-01  -1.0621031330292903e-01  -1.4867599920853511e-01  -3.8786287400015812e-01  -1.1194195748511027e-01  -1.7384421094726468e-01  -1.0269024401430457e-01  -1.6105618207649111e-01  -2.2215810503830924e-01  -2.0416902045897672e-01  -1.4466113157705981e-01  -1.7673285244692813e-01  -2.3071417566017363e-01  -1.2037154476726865e-01  -1.9079555893410238e-01  -2.3950700354245119e-01  -1.8318480900590586e-01  -2.2964127894351807e-01  -2.7789373825493086e-01  -4.4163737110640494e-01  -3.5458650267526698e-01  -3.5689704797182581e-01  -3.6410761582450057e-01  -3.4719696350403395e-01  -3.9375180141226823e-01  -3.8013350267008156e-01  -3.8418695723189811e-01  -3.7894731578643270e-01  -3.7232607425860442e-01  -3.7486273407769805e-01  -3.8098646499708755e-01  -4.2045574717457751e-01  -2.4991615478633789e-01  -2.0879530513553371e-01  -2.4778251924824099e-01  -2.2050925515329270e-01  -1.5987679457078913e-01  -4.1100873486754647e-01  -4.2918055727189108e-01  -1.7691740821737911e-02  -1.0053283877525770e-01  -3.6250258688586701e-01  -1.4333763400072780e-01  -2.2182897146659922e-01  -2.0437577142866348e-01  -1.2477880663693866e-01  -1.8498434530685806e-01  -2.4236862120879102e-01  -2.0825441039139819e-01  -1.5353042871037428e-01  -8.9540511659464334e-02  -2.6447876325872660e-01  -4.1656976996231226e-01  -4.2623323228049947e-01  -4.2093621024273331e-01  -3.9613355396356464e-01  -1.5961633767302422e-01  -3.6704626424244630e-01  -3.2024438557091583e-01  -3.3000075892051839e-01  -3.9172906098938137e-01  -3.9118647763598974e-01  -4.0212198948270539e-01  -3.6858317313455641e-01  -4.0180219521663368e-01  -4.0235722554375658e-01  -4.2588529263254549e-01  -4.2368298286964351e-01  -4.2552571488090074e-01  -4.0097766231077925e-01  -4.2364749493998344e-01  -4.4155585387442298e-01  -3.9770377293574666e-01  -4.4693233857397369e-01  -4.3830886047334772e-01  -4.4964200144216787e-01  -3.1807555861403242e-02  -7.2448962751348461e-02  -4.3520560199376951e-01  -3.2490562412049112e-01  -3.6217076335101495e-01  -8.1074317234068619e-02  -2.5787680368299326e-01  -2.4098091844465135e-02  -2.7788433676523269e-02  -2.8336868128847759e-01  -2.7140178134020676e-01  -1.3497876551544422e-01  -1.3103134007263459e-01  -1.9523673310275513e-01  -3.8238253714828374e-01  -3.8429549543549130e-01  -3.8076256011975002e-01  -3.8442527478941191e-01  -3.8727027687971705e-01  -4.3795561566432817e-01  -1.1568698640249690e-01  -1.7752343389259423e-01  -9.6783747160570796e-02  -3.6716403157166705e-01  -1.4152477342780181e-01  -2.3600809323214594e-01  -2.1919246411155366e-01  -1.0355509590644764e-01  -4.4732228508044158e-01  -2.2582849826727996e-01  -4.0355313960844413e-01  -4.4513641954889288e-01  -1.3524413772179590e-02  -2.6608189770744178e-02  -3.0106606127537520e-02  -2.4192345248385164e-01  -4.2647307015557562e-01  -6.8790760560738434e-02  -3.5888804108966055e-01  -2.2297543802075340e-01  -1.5241994582192051e-01  -3.3244894462739921e-01  -3.0467686520587973e-02  -3.0654657099135380e-01  -2.1049208638656569e-01  -6.4835842266988186e-02  -1.9151894897533026e-02  -8.4522207716334272e-02  -6.2321972003220941e-02  -4.1608793633219142e-02  -4.0252307226765494e-01  -3.5846773451722419e-01  -2.5375695342967602e-01  -4.2602567784070877e-01  -3.6188764810474966e-01  -1.4474296433561204e-02  -6.1396038621800222e-02  -1.3503818576604926e-01  -3.7277845911757185e-01  -2.6104039404287849e-01  -4.1856167605472716e-01  -8.7261773812246021e-03  -1.3287155753982996e-01  -9.3937547799734372e-02  -8.2961307732534711e-02  -1.6495889733063082e-01  -2.3414171105469034e-01  -1.7988185395313980e-02  -3.8128752412305833e-01  -2.4344755519226233e-01  -4.4929669051248972e-01  -4.4347819535552074e-01  -3.7141145656465102e-01  -1.7185644601821762e-01  -2.9146859524360308e-01  -1.4435267033656679e-01  -4.1199400182084739e-01  -3.2352728698030753e-01  -2.7498461364277177e-01  -4.4297720066438651e-01  -1.0988767749721642e-01  -1.4862261721022332e-01  -2.2324419072358043e-01  -2.2214732706939586e-01  -3.5512658497195554e-