<?xml version="1.0"?>
<VTKFile type="UnstructuredGrid"  version="0.1"  >
<UnstructuredGrid>
<Piece  NumberOfPoints="1151" NumberOfCells="2204">
<Points>
<DataArray  type="Float64"  NumberOfComponents="3"  format="ascii">0 0 0  0 1 0  1 1 0  1 0 0  1.1 -0.1 0  -0.1 -0.1 0  1.1 1.1 0  -0.1 1.1 0  0.5504342214652279 0.5348505343828823 0  0.6118218885892972 0.7146526994663923 0  0 0.9499999999997918 0  0 0.8999999999995836 0  0 0.8499999999996529 0  0 0.7999999999999998 0  0 0.7500000000003466 0  0 0.7000000000006934 0  0 0.6500000000010401 0  0 0.6000000000013869 0  0 0.5500000000017335 0  0 0.5000000000020587 0  0 0.4500000000018723 0  0 0.4000000000016644 0  0 0.3500000000014564 0  0 0.3000000000012483 0  0 0.2500000000010403 0  0 0.2000000000008322 0  0 0.1500000000006241 0  0 0.100000000000416 0  0 0.05000000000020799 0  0.04999999999989965 0 0  0.09999999999981467 0 0  0.1499999999997036 0 0  0.1999999999995579 0 0  0.2499999999994121 0 0  0.2999999999992664 0 0  0.3499999999991206 0 0  0.3999999999989749 0 0  0.4499999999988292 0 0  0.4999999999986943 0 0  0.5499999999988151 0 0  0.5999999999989468 0 0  0.6499999999990784 0 0  0.69999999999921 0 0  0.7499999999993417 0 0  0.7999999999994734 0 0  0.8499999999996051 0 0  0.8999999999997368 0 0  0.9499999999998684 0 0  1 0.04999999999989965 0  1 0.09999999999981467 0  1 0.1499999999997036 0  1 0.1999999999995579 0  1 0.2499999999994121 0  1 0.2999999999992664 0  1 0.3499999999991206 0  1 0.3999999999989749 0  1 0.4499999999988292 0  1 0.4999999999986943 0  1 0.5499999999988151 0  1 0.5999999999989468 0  1 0.6499999999990784 0  1 0.69999999999921 0  1 0.7499999999993417 0  1 0.7999999999994734 0  1 0.8499999999996051 0  1 0.8999999999997368 0  1 0.9499999999998684 0  0.9499999999997918 1 0  0.8999999999995836 1 0  0.8499999999996529 1 0  0.7999999999999998 1 0  0.7500000000003466 1 0  0.7000000000006934 1 0  0.6500000000010401 1 0  0.6000000000013869 1 0  0.5500000000017335 1 0  0.5000000000020587 1 0  0.4500000000018723 1 0  0.4000000000016644 1 0  0.3500000000014564 1 0  0.3000000000012483 1 0  0.2500000000010403 1 0  0.2000000000008322 1 0  0.1500000000006241 1 0  0.100000000000416 1 0  0.05000000000020799 1 0  -0.1 1.05000000000004 0  -0.1 1.000000000000079 0  -0.1 0.9500000000001624 0  -0.1 0.9000000000003032 0  -0.1 0.850000000000444 0  -0.1 0.8000000000005848 0  -0.1 0.7500000000007256 0  -0.1 0.7000000000008665 0  -0.1 0.6500000000010508 0  -0.1 0.6000000000012352 0  -0.1 0.5500000000014196 0  -0.1 0.500000000001539 0  -0.1 0.4500000000014195 0  -0.1 0.4000000000013 0  -0.1 0.3500000000011588 0  -0.1 0.3000000000010178 0  -0.1 0.2500000000008986 0  -0.1 0.2000000000007579 0  -0.1 0.1500000000006174 0  -0.1 0.1000000000005272 0  -0.1 0.05000000000040083 0  -0.1 2.671196597248127e-13 0  -0.1 -0.0499999999998666 0  -0.0500000000000906 -0.1 0  -1.730560139634463e-13 -0.1 0  0.04999999999975802 -0.1 0  0.09999999999961506 -0.1 0  0.1499999999994613 -0.1 0  0.199999999999302 -0.1 0  0.2499999999991446 -0.1 0  0.2999999999990088 -0.1 0  0.3499999999988296 -0.1 0  0.3999999999986936 -0.1 0  0.4499999999985143 -0.1 0  0.4999999999984002 -0.1 0  0.5499999999985247 -0.1 0  0.5999999999986493 -0.1 0  0.6499999999987955 -0.1 0  0.6999999999989417 -0.1 0  0.7499999999990659 -0.1 0  0.7999999999992116 -0.1 0  0.8499999999993573 -0.1 0  0.8999999999994526 -0.1 0  0.949999999999584 -0.1 0  0.9999999999997226 -0.1 0  1.049999999999861 -0.1 0  1.1 -0.0500000000000906 0  1.1 -1.730560139634463e-13 0  1.1 0.04999999999975802 0  1.1 0.09999999999961506 0  1.1 0.1499999999994613 0  1.1 0.199999999999302 0  1.1 0.2499999999991446 0  1.1 0.2999999999990088 0  1.1 0.3499999999988296 0  1.1 0.3999999999986936 0  1.1 0.4499999999985143 0  1.1 0.4999999999984002 0  1.1 0.5499999999985247 0  1.1 0.5999999999986493 0  1.1 0.6499999999987955 0  1.1 0.6999999999989417 0  1.1 0.7499999999990659 0  1.1 0.7999999999992116 0  1.1 0.8499999999993573 0  1.1 0.8999999999994526 0  1.1 0.949999999999584 0  1.1 0.9999999999997226 0  1.1 1.049999999999861 0  1.05000000000004 1.1 0  1.000000000000079 1.1 0  0.9500000000001624 1.1 0  0.9000000000003032 1.1 0  0.850000000000444 1.1 0  0.8000000000005848 1.1 0  0.7500000000007256 1.1 0  0.7000000000008665 1.1 0  0.6500000000010508 1.1 0  0.6000000000012352 1.1 0  0.5500000000014196 1.1 0  0.500000000001539 1.1 0  0.4500000000014195 1.1 0  0.4000000000013 1.1 0  0.3500000000011588 1.1 0  0.3000000000010178 1.1 0  0.2500000000008986 1.1 0  0.2000000000007579 1.1 0  0.1500000000006174 1.1 0  0.1000000000005272 1.1 0  0.05000000000040083 1.1 0  2.671196597248127e-13 1.1 0  -0.0499999999998666 1.1 0  0.6514837661266863 0.7037926668003398 0  0.6895522744692213 0.6821352590358976 0  0.7219486854601825 0.649771920804416 0  0.739437887327298 0.6089259579231759 0  0.74919495537908 0.5681780673351784 0  0.7527899784240278 0.5278974586155848 0  0.7520988140658491 0.4882408209719181 0  0.7471461763661484 0.4491009499112659 0  0.738256258375514 0.4108237551210259 0  0.7250109436208825 0.3737414251139616 0  0.7072789725239373 0.3380226400763746 0  0.6839340224495871 0.3044751678766104 0  0.6534772772343471 0.274547895110945 0  0.6152701252048047 0.2522114208517685 0  0.5732721313827076 0.244461043031987 0  0.5331142220116243 0.2458420373534177 0  0.4959484789564597 0.2530779980706199 0  0.4611060399425833 0.2633011562697548 0  0.4279554421900236 0.2755439311886334 0  0.3963676157678942 0.2898618358519735 0  0.3662452871301826 0.3061291888387452 0  0.3375262764305191 0.3242193647951834 0  0.310047548095188 0.3439907911788313 0  0.2839229786072484 0.3656320354988952 0  0.2588222142474486 0.3889277071383211 0  0.2349546170828354 0.4141173263883941 0  0.2123662726411712 0.4416382329741476 0  0.1914531353516771 0.472757155440232 0  0.1778944545180453 0.5110486951705111 0  0.1856279880778345 0.5558842319708012 0  0.209690387962978 0.5885436996091982 0  0.23727879128549 0.6142201913185754 0  0.2660738646277945 0.6362760747441106 0  0.2958529981036814 0.6557885596809452 0  0.3269401634432998 0.672591565885022 0  0.3594012336760603 0.6865732683977707 0  0.392768311294445 0.6983521665117559 0  0.427180792046955 0.7074537086214114 0  0.462459596109169 0.7142683456307807 0  0.4984616138045661 0.7189884837065901 0  0.535395049971094 0.7210362024784917 0  0.5732133314506153 0.7199935526309214 0  0.3541132353480343 0.6416669552038309 0  0.3442879465941884 0.3695714247663663 0  0.6636947005644954 0.3372952619039686 0  0.262973099374072 0.4351959110381386 0  0.529160963382591 0.279771374891019 0  0.6599925983142373 0.6607680653331285 0  0.4315992573638458 0.3171159938194649 0  0.4213365273678013 0.6614469935445667 0  0.293801474625503 0.6082107882844852 0  0.7066671118268437 0.4375492026193697 0  0.7173137339378183 0.5111454867600838 0  0.2371487668037879 0.5657498561601807 0  0.7095678802983335 0.5874023546270812 0  0.5965736257767665 0.6783858566527349 0  0.4871548282251407 0.6749786067926551 0  0.5940455119612322 0.2821206906286551 0  0.2300007911928853 0.4895809957358757 0  0.2093314437215715 0.5286173441765472 0  0.3723474397212405 0.3498640769769444 0  0.3786896419009095 0.3946282174668491 0  0.3500375907065454 0.4154127456569765 0  0.3835849257644197 0.4400567830122436 0  0.4127564923273409 0.418891213475327 0  0.3530650282708092 0.4624682078990063 0  0.3883007762741552 0.4881969647852906 0  0.3586916570726285 0.520365723809075 0  0.3982310446405015 0.5409560760482914 0  0.4347318812329952 0.5057649256965181 0  0.4329774712290833 0.5675062901706686 0  0.4040140948685726 0.5898482676998291 0  0.3228787370278015 0.4880069626003457 0  0.3233040340253558 0.5363030731842869 0  0.291875653749798 0.5083769347371879 0  0.3463056717304197 0.5621238255279812 0  0.2930867227277923 0.5588960495763211 0  0.2613233185135883 0.5260120001548398 0  0.4309495959517784 0.6147937955464814 0  0.4645348497411974 0.5974779250904164 0  0.4707793795508114 0.544373059500748 0  0.483403349902092 0.4841982672018125 0  0.5498048202863581 0.4515800769443376 0  0.4708946235023797 0.4099376510422479 0  0.5379541304591363 0.3895267290607345 0  0.6221444736535742 0.4910677084248155 0  0.6055622903141298 0.5657854865246276 0  0.6155296708572697 0.4265324574350382 0  0.4581984372453247 0.6425041260776223 0  0.4941386423071597 0.6256989171253224 0  0.5244345628294828 0.6509254283423259 0  0.4068058138891341 0.375082574279431 0  0.3211494090519684 0.4386421463427863 0  0.5314546530977866 0.60413139219472 0  0.5600355888697548 0.6316262121014994 0  0.5570979997558976 0.6767693561872007 0  0.5700875559412466 0.5895694317000849 0  0.6003569503812863 0.6088816019539544 0  0.6424922567209563 0.5882636900919725 0  0.6496850486933932 0.5442601381256731 0  0.6268352087379629 0.6390053859715393 0  0.3218842255645061 0.5830353044875206 0  0.2629439252453535 0.4796018366290828 0  0.3171215594242728 0.3900958130561698 0  0.6731224215446243 0.6164963503529841 0  0.3851194235730682 0.6558764408218706 0  0.4634175992580249 0.3032124685354159 0  0.4652706608188728 0.3410199208670799 0  0.4954473891057777 0.3269230018111247 0  0.4016252184975356 0.3325878010360184 0  0.2894211605047615 0.4140417513111389 0  0.3234704738066716 0.62746888731761 0  0.2651958129411054 0.5848696507249992 0  0.6790527285617127 0.5666537501727535 0  0.7159833015922306 0.4738618106644497 0  0.680339616958953 0.4641387698615881 0  0.6693032616437058 0.4252053177446191 0  0.6972717930052518 0.4001202718027986 0  0.6569376130109136 0.3861929409580004 0  0.4941152280210749 0.2896319723729517 0  0.4397156319609266 0.3966417511833775 0  0.7155023773175115 0.5487052854869646 0  0.4136003163649047 0.4590150118823674 0  0.448162089041574 0.4424683590356672 0  0.4347011511465251 0.356447263930774 0  0.5032941015618123 0.5731215478876394 0  0.6900696253216119 0.3671040166893152 0  0.6240755642283474 0.3534330033146614 0  0.6249810154104875 0.3145947730705305 0  0.5889816197360452 0.3271543107703699 0  0.5884081411047932 0.3638199262876161 0  0.5586657994816474 0.
[...]
<PointData  Scalars="u"> 
<DataArray  type="Float64"  Name="u"  format="ascii">-3.9858384038822296e-18  -2.5107848040786101e-19  2.5271303095259294e-18  -1.6057071228445954e-18  8.8228146289827505e-20  2.4405671150970963e-19  -1.2638514966969999e-19  3.0912951771262035e-20  6.0943985510620372e-02  -1.1111469680125154e-01  3.3027560328711531e-18  -1.1957613753689497e-17  -2.0069100043339181e-17  -4.6962295656337619e-18  -5.2698530495181323e-19  -3.0382063708645136e-17  -1.0723716644969278e-17  1.5126398210610813e-17  1.2083253755665607e-17  -3.1089944459967827e-17  5.7798149973012208e-18  1.6322526093988465e-17  1.9912020147818891e-18  1.7394034646834912e-17  4.4930073256205767e-18  1.2375991686167137e-17  -1.0820215125734317e-18  -1.7941539011516464e-17  1.2710132884863094e-17  -9.0953760427033622e-18  -1.3593631091713437e-17  -2.1220216973672163e-18  -3.3785700983112184e-17  -1.0163226469162076e-17  -2.9402778199243293e-17  6.9522169201709443e-17  -9.3326424491220916e-18  -5.6843524330213121e-17  3.7958554632449274e-17  -2.8719043982947514e-17  -3.2103363421469846e-17  -6.3876228946891069e-17  -2.7882177900296128e-18  9.1952419730159601e-18  -5.6629196359069257e-17  -1.6887989065446152e-17  -1.9344633195458309e-18  4.2323669725429858e-18  -3.1777428585944250e-18  -1.1442664891193186e-17  -3.6406890380293336e-19  -1.3634973651756773e-16  1.8868214399271929e-16  1.2472215650764470e-18  -5.0378119813434012e-17  -1.6122853575647822e-17  2.7098677022985970e-16  7.1631069217823764e-18  -2.9325896969387951e-16  -1.3979778004845919e-17  4.1042665189523221e-17  -3.2524081730110143e-19  -1.2278941441788230e-17  1.8933493164789975e-16  2.8902571836459021e-18  8.2426850180352649e-19  -6.7056110444794448e-17  -2.9208011109542456e-18  -1.2068207658824316e-16  -1.7501034863939284e-18  1.3656679731065108e-16  -1.1819622215537778e-17  2.5263970045689828e-17  2.1714627994204934e-17  -2.6881986207037267e-16  2.0869397130718499e-16  2.2812661258447718e-16  -2.2765820707129089e-16  -2.0269703336558454e-17  2.3158306346639588e-16  1.8066100474668663e-16  -1.4451276906862965e-16  -1.2731469918763435e-17  1.2104884598374409e-17  8.6716263314913223e-17  4.1886009190110182e-17  -1.2762802879459921e-19  3.0725734581382669e-19  -2.1665010501269353e-19  -1.6513147717368542e-18  -2.6163448530078352e-18  -3.1773834716303975e-19  -1.5736882116985598e-18  -4.5083197585209752e-18  -1.5107910481913161e-18  2.1371478935297555e-18  1.4240304320370687e-18  -3.5348710620124111e-18  -9.2799589998058874e-19  2.3829276154043638e-18  1.5170838155805466e-18  -7.9084902342083098e-19  1.6821104279348921e-18  1.9557585971575237e-18  -9.5137920386292137e-19  -4.9441063422207052e-19  2.3169614943328203e-19  3.4831760247796484e-19  -3.9078126912777786e-19  -4.3321738111178773e-20  -4.6504749199986193e-19  -1.0482799965982561e-18  -2.4684289512521520e-18  -2.3470619683849406e-18  -2.8815616916339080e-18  -4.5355123221731616e-18  1.8973334161069671e-18  7.3388592589203072e-18  -1.7810802972201450e-18  -4.7801127454798540e-18  -5.8528393435854443e-19  -1.5218081827854726e-18  -6.5223680619308838e-18  -7.6553800705127810e-18  8.2207134380018744e-19  6.0746109623180380e-19  -6.2447003913146912e-18  -3.8137579087734611e-18  4.1627113438288527e-19  5.8016745925969029e-19  -1.1351926274963958e-19  -8.7613421560664968e-20  -4.7556043897082245e-20  -6.9056778808946453e-20  -5.9261312161152008e-19  -1.4846774969563663e-18  -6.0599222503904506e-19  1.0630410869849365e-18  3.7143622085074968e-18  -1.5051732339833155e-18  -6.0007989316489098e-18  -3.7266919386509611e-18  -1.0663297926847145e-18  1.4128980587649108e-19  -2.9393570773222286e-18  -9.3844152371889973e-19  4.9255849990648853e-18  -2.9299771812226129e-19  -1.5700834821665208e-18  1.3670252688719313e-18  1.3866279537102859e-18  -1.7231924979072855e-19  3.1753180770723919e-19  2.8324196431322054e-19  3.5104415040179321e-20  1.2766107273777936e-19  1.9491861929158022e-19  -6.9648685358235407e-19  -8.4061796651102374e-19  -1.0219981094512786e-18  -3.4484271360090132e-18  -1.7266080404657459e-18  3.0514412841392049e-18  2.0407765434061440e-18  -5.5737263284175662e-18  -3.0303151602015356e-18  1.7159116345423343e-19  -8.4011948569287540e-19  -1.7480930767403953e-18  2.8625577973822033e-18  3.5288164453537105e-18  -2.6985354456970666e-19  -4.9946369173903375e-19  1.1104522627883880e-18  1.2370371723117899e-18  -2.1174138056719447e-20  -1.7583428329452169e-19  4.6206830946128273e-20  -1.1732442242259179e-01  -1.2025206759070359e-01  -1.1807066659726623e-01  -1.0965345462364293e-01  -1.0195184439334036e-01  -9.6490750910130790e-02  -9.4029152681581102e-02  -9.4247408416276601e-02  -9.6580881622416598e-02  -1.0023056399390425e-01  -1.0438583208346269e-01  -1.0788526461036227e-01  -1.0861026559251413e-01  -1.0630376674650913e-01  -1.0025108940419619e-01  -9.4856152547271616e-02  -9.0987982402424977e-02  -8.8930629632416380e-02  -8.8349611849384641e-02  -8.8520956230736025e-02  -8.8849427714345119e-02  -8.8936720470105604e-02  -8.8821848786800425e-02  -8.7966801620375595e-02  -8.6865723936467326e-02  -8.5863672104360231e-02  -8.5117880967115561e-02  -8.5290355209834551e-02  -8.6600304528784172e-02  -9.0051650320950055e-02  -9.2728502003519647e-02  -9.4967922997628240e-02  -9.6262629939572381e-02  -9.7284424882011694e-02  -9.7217355662745156e-02  -9.6865137816312591e-02  -9.6124717476212818e-02  -9.5571983487105786e-02  -9.5805734056236214e-02  -9.7499019620089722e-02  -1.0061267812234112e-01  -1.0537107433637921e-01  -3.5526861824980133e-02  -2.5620864250063820e-02  -5.2462026889599937e-02  -3.7003223107370815e-02  -4.5554671907319919e-02  -6.7742865707633437e-02  -2.7606331565848508e-02  -2.9242641702030323e-02  -3.9716755766797951e-02  -4.1128435109796704e-02  -4.4231740856101327e-02  -4.9562019265432140e-02  -5.7336672944956896e-02  -5.2177667094663996e-02  -3.1908257613273670e-02  -5.6678876141051500e-02  -4.3137266526564189e-02  -5.5920656387705756e-02  -2.5626224739374537e-02  1.4693852290686876e-02  1.1792795109239826e-02  4.1005860564270982e-02  4.3525006840568266e-02  3.3852814024135425e-02  5.3131408605983553e-02  3.8901905069307956e-02  4.9738278664134411e-02  6.7654340708594954e-02  4.8814730433640277e-02  2.8545990405232258e-02  2.1414240565519979e-02  1.7190134449583727e-02  3.7223217874959823e-03  2.0032739192722106e-02  -8.7397886598420352e-03  -1.9689709081236909e-02  1.8272547721531984e-02  3.6887801023412790e-02  6.3865157412270418e-02  7.3820469738540895e-02  6.4259466727462800e-02  5.2246517918093947e-02  4.1554468852401112e-02  3.4174824462059480e-02  2.7435363460900558e-02  2.8556127537333224e-02  -1.6859661796741656e-03  1.7542581418767987e-02  -7.8745059397960417e-03  1.3928373016021530e-02  6.1009630240127458e-03  3.1378285710485565e-02  3.9977061343257989e-03  -3.9316895670289446e-02  3.0193147923511444e-02  7.0818455056280019e-03  -3.2661660928323100e-03  9.2202371464442968e-03  -2.9801477669788634e-02  -5.0080579343731038e-03  -2.0858063538178203e-02  -2.7338562799125683e-02  -4.3865030171393996e-02  -3.5707905706166915e-02  -3.0809821085826323e-02  5.3898784534276243e-03  -2.2988418281964505e-03  -2.5977144110528448e-02  -3.0235395503176495e-02  -3.8276173202357933e-02  -4.1181110429595109e-02  -2.2422725675462812e-02  -4.3233882074957479e-02  -1.1311379987395394e-02  -1.1183381595240799e-02  -4.5399052858524053e-02  -1.7758105965715792e-02  -3.7873212346154046e-02  4.0281037755585419e-02  -4.8967992452640635e-02  5.7425250659772206e-02  6.2688945960176448e-02  9.8491161182165023e-03  5.1908241887610257e-02  -5.4933496864237298e-02  -1.3716651605035083e-02  -4.4020046918672319e-02  -1.5704831762526288e-02  1.2233602838742388e-02  2.8556979242995587e-03  1.0932704541686359e-02  -3.3568285442372822e-02  3.4914354372399557e-02  1.8666974098390118e-02  4.3309990410408852e-02  -4.9835053150134893e-03  2.8612579981011244e-02  5.1496089433520173e-02  -7.3258336565074564e-02  -6.6429143164477386e-02  -4.6374875721382269e-02  -1.7253401502182786e-02  8.9249556856872518e-03  -1.4613214430740113e-03  -4.2241634264351721e-02  5.4092384417146339e-02  -4.0936806338406136e-02  -4.5203242129564690e-02  -1.7877710506071974e-02  1.2208030940074092e-03  -1.4114461007086361e-02  6.5074203147910820e-02  3.7594906744467783e-02  3.5396639082452663e-02  7.0408700890761150e-02  -2.0328926738185558e-02  -5.8523962281418949e-02  -6.7742026286574247e-02  1.7869873706366463e-02  -1.9836162113925026e-03  -6.8578275250015280e-02  -7.7870907923332108e-02  2.3563036490424155e-02  8.1642353233180361e-03  2.9376619488989029e-02  -1.4298326885666002e-01  -1.2158507555602625e-01  -1.2221831671378725e-01  -1.2106173332377576e-01  -1.1419144356127432e-01  -1.1457890183873318e-01  -1.3005269313243056e-01  -1.3770453053675735e-01  -1.1871518076520023e-01  -1.2757374749552225e-01  -1.3016578694385283e-01  -1.1333901392571764e-01  -1.5118396223471626e-02  -1.4839839245050996e-02  -1.3764116297971420e-02  -1.0771542884205036e-01  -9.5068214139864011e-03  -2.9502227985296316e-02  -1.5182712613761728e-02  -2.2038908302402276e-02  -1.0256338505482691e-02  -3.0068365014896421e-02  -7.8894956273105679e-03  -6.1535538966886105e-03  -3.7648625556653881e-02  -1.1895772228307229e-01  -2.0035513430738509e-02  -1.5628216182376364e-02  -1.1805209556290069e-01  -1.1647667892457389e-01  -3.3472586796183978e-02  -1.9198343954695274e-02  -1.2669344680538486e-01  -3.8303003488181289e-02  -3.2373761715051345e-02  -1.9936306297762902e-02  -1.6080260038393236e-02  -4.9715307558967758e-03  -6.9860166423174833e-03  -9.1818013770979031e-03  -9.4050198249030527e-03  -3.2427122479259426e-02  -2.2714334339617614e-02  -1.4652662016327235e-02  -5.1761054404133120e-03  -1.2774945354282080e-01  -1.3441364236553613e-01  -1.3202860840074998e-01  -1.3923207998346920e-01  -1.4261664989832967e-01  -1.4696960121891969e-01  -1.5150387862822354e-01  -1.3673341177725112e-01  -1.5353778624050507e-01  -1.5933026981653473e-01  -1.5692098594478932e-01  -1.6273201842671323e-01  -1.6334545312819104e-01  -1.6483425348306133e-01  -1.6357383002862239e-01  -1.6176706568297788e-01  -1.5889799647745947e-01  -1.5958380729924021e-01  -1.5205918827671910e-01  -1.4837624740710992e-01  -1.4823359128279484e-01  -1.5529356612314937e-01  -1.5268855679340873e-01  -1.4291006190442301e-01  -1.3563263078379906e-01  -1.3756878150459864e-01  -1.4567473325897709e-01  -1.3758056001348090e-01  -1.2781266364011665e-01  -1.2438750509356537e-01  -1.3350939241607016e-01  -1.2312577850109947e-01  -1.3208928451164667e-01  -1.2463481000521920e-01  -1.3412156060384742e-01  -1.2887337374919247e-01  -1.3955562913058295e-01  -1.3588274531869471e-01  -1.4790593650726219e-01  -1.4439085270334887e-01  -1.5693516821243989e-01  -1.5271730484220783e-01  -1.6529048788839584e-01  -1.5901289530097337e-01  -1.7030088738791377e-01  -1.6131234345388440e-01  -1.7023597556740327e-01  -1.5775664331760861e-01  -1.6234378041236280e-01  -1.7186248110336727e-01  -1.5969868117082955e-01  -1.6781179872011023e-01  -1.4098285247364928e-01  -1.5187187439809802e-01  -1.6004576517356686e-01  -1.4635669965480999e-01  -1.4107765985304496e-01  -1.5031262721627794e-01  -1.3863384912974192e-01  -1.2578565619140647e-01  -1.1185335054325270e-01  -1.7459575616189477e-01  -1.6238158669004105e-01  -1.5498647983908317e-01  -1.4035559978797313e-01  -1.4818551964119939e-01  -1.3087025529129151e-01  -1.4233769725569170e-01  -1.5246192859108293e-01  -1.5036949434954633e-01  -1.3757464757534882e-01  -1.4907212194493519e-01  -1.5535255325837002e-01  -1.5739876897625266e-01  -1.4794430271142389e-01  -1.5916946953265970e-01  -1.4627033189827440e-01  -1.5959658672928526e-01  -1.6662045648208595e-01  -1.6783206634651657e-01  -1.5745792241655793e-01  -1.6495111960754932e-01  -1.6952162455865000e-01  -1.6531757021991020e-01  -1.5641276279157218e-01  -1.6526370047117683e-01  -1.5856493873957414e-01  -1.5546342684554901e-01  -1.4561164588020498e-01  -1.4117605358173579e-01  -1.5743151602701200e-01  -1.4456878859733330e-01  -1.1420584144773781e-01  -1.6527337566242925e-01  -1.3806474532529961e-01  -1.0702332406549986e-01  -1.2751791691016812e-01  -1.2402140532765275e-01  -1.2430537761186262e-01  -1.6009427559868269e-01  -1.2829346900747185e-01  -1.2326996228794998e-01  -1.1498676146592816e-01  -1.1584945609025259e-01  -1.0353825833304819e-01  -1.6476691663209009e-01  -1.1364166556767406e-01  -1.4909853618806068e-01  -1.5246470396920572e-01  -1.2049609641810706e-01  -1.3464275848737317e-01  -1.4898123510930986e-01  -9.7603198496437185e-02  -1.4522859557102341e-01  -1.3703027362664819e-01  -8.3651497573574846e-02  -9.9008793830059338e-02  -1.3061915911774069e-01  -1.3556550479713356e-01  -1.3122946766496357e-01  -1.3396528401044869e-01  -1.3333968538051968e-01  -1.3167344295029368e-01  -1.3518827716379858e-01  -1.2885285550053449e-01  -1.2744485398145403e-01  -1.3461039763493873e-01  -1.4040447341706522e-01  -1.4274529535236413e-01  -1.4660728876968160e-01  -1.5097154854837508e-01  -1.5266275120650172e-01  -1.5839433454789734e-01  -1.5027071744578513e-01  -1.5862307528923833e-01  -1.6400822530374115e-01  -1.6368645106437352e-01  -1.6610267060176295e-01  -1.6378074808316917e-01  -1.6305157406384135e-01  -1.5655920930073927e-01  -1.5700564248142981e-01  -1.5379019096368557e-01  -1.5596169924860062e-01  -1.4559824065782995e-01  -1.4389369603494792e-01  -1.6152421041585893e-01  -1.3077174200101432e-01  -1.3785401851849141e-01  -1.2868863736799926e-01  -1.3517865501999840e-01  -1.1889652313878807e-01  -1.1916853374488186e-01  -1.0862513952751013e-01  -1.4228168981320827e-01  -1.0566432165703656e-01  -1.0873401830747800e-01  -1.0135126721392748e-01  -1.0484293319075022e-01  -1.0987668431296789e-01  -1.0764771901654317e-01  -9.0693489233905480e-02  -1.6489382862974916e-01  -8.1841977849011163e-02  -7.7157871283429574e-02  -1.4583825048071700e-01  -1.0501647105951072e-01  -1.0578891440017255e-01  -1.5533692683494113e-01  -1.5907444729040832e-01  -1.3939533581775398e-01  -1.3983620862943572e-01  -1.4863272359604809e-01  -1.1407157053887544e-01  -1.0325015003901800e-01  -1.5418764831888340e-01  -1.2729715167470299e-01  -1.4670877139438382e-01  -1.3890243037059757e-01  -9.8503257739376016e-02  -9.0258000710372668e-02  -1.5637979592117601e-01  -1.0329041184312994e-01  -8.4892858402834739e-02  -1.1204288797939986e-01  -8.0876100458928846e-02  -1.0297603183003913e-01  -1.2804800827969320e-01  -1.2824412564627649e-01  -1.1107760668389276e-01  -1.3249500681074902e-01  -8.5591691615175131e-02  -1.0693124398724543e-01  -1.2582969942170685e-01  -1.4055538947486831e-01  -1.4823563295437997e-01  -1.4537357524786482e-01  -1.4981667149791664e-01  -1.5698255701194697e-01  -8.2012958483697301e-02  -6.8327202540420559e-02  -1.4244615168728667e-01  -1.4789830416776012e-01  -1.3654531042959245e-01  -9.1405395405618428e-02  -8.6497085025186854e-02  -9.2793824008193318e-02  -5.3300691540533483e-02  -1.5870423478367743e-01  -1.6559382347242846e-01  -4.1303222867438975e-02  -1.1704633654173346e-01  -8.1233714319643824e-02  -1.0948691605491827e-01  -1.4624223197110842e-01  -1.5140468320469080e-01  -7.3738603056979282e-02  -9.7409450327677033e-02  -1.1006342854280030e-01  -1.0467833975544646e-01  -5.6501011744449138e-02  -7.5514862814756417e-02  -2.9038821157655364e-02  -1.5954605672692041e-02  -2.2046056812327457e-02  -1.3295467008429240e-01  -1.1866848743242199e-01  -1.3200220397442380e-01  -1.0059272525509830e-01  -1.1457731891705121e-01  -1.0589784259257272e-01  -1.6752998427985133e-01  -1.0354668734272138e-01  -1.3150982935377944e-01  -1.3625735412083329e-01  -1.3012063015964578e-01  -1.3763663193010778e-01  -7.1340613471860506e-02  -6.9279818823884079e-02  -1.2218799960355592e-01  -6.1818458967281838e-02  -9.0144787113840621e-02  -1.3905492816204637e-01  -1.3065472502288267e-01  -1.4619658402703400e-01  -1.3338793429048243e-01  -1.4701724697781751e-01  -1.1016851398324931e-01  -8.2149344139878358e-02  -8.0774611537974605e-02  -5.0391746488481978e-02  -5.1147005896448626e-02  -1.2069344289153941e-01  -8.4553767957224010e-02  -9.3652282231681247e-02  -1.1048485849749425e-01  -7.2668197366810725e-02  -5.0330592098898688e-02  -8.2109324392180091e-02  -5.5090420524767210e-02  -5.9565053406642539e-02  -5.8141464790700363e-02  -4.8931443896243904e-02  -3.9369856947391459e-02  -1.3854426175165702e-01  -1.3839535575096654e-01  -1.1864810067147814e-01  -1.2411161500828358e-01  -1.0667430438177078e-01  -7.0260618173603476e-02  -6.7078561408224865e-02  -6.3903765408575203e-02  -1.0359709090522518e-01  -1.0560668969701488e-01  -1.1539216908927087e-01  -1.1899949493494086e-01  -1.2870927008524333e-01  -1.1920441324555339e-01  -1.2810532170340125e-01  -1.1826444040332497e-01  -1.2687450035187697e-01  -1.3897269237746648e-01  -1.3606652501989538e-01  -1.4785546925910445e-01  -1.4454150044773451e-01  -1.3156534470003542e-01  -1.1975032581438791e-01  -1.2654875760140860e-01  -1.3181762880674799e-01  -1.2658797457936002e-01  -1.2997877079943695e-01  -2.8182321912129354e-02  -2.8414214585140315e-02  -6.6655288132196136e-02  -1.3726969087076013e-01  -1.4963736591655169e-01  -7.2286675451031471e-02  -4.7150569046004613e-02  -1.2508981000556688e-01  -1.2061780512913323e-01  -1.4964378161213934e-01  -7.0654994475868010e-02  -1.0004252781176053e-01  -6.8543640500214512e-02  -9.0004175314545271e-02  -1.2355359338896194e-01  -1.0455377957409100e-01  -6.7284488435794113e-02  -8.4756858118901421e-02  -1.1586563496567881e-01  -9.8527267991515677e-02  -1.5736666732951651e-01  -1.5166105701522964e-01  -1.5988471361952331e-01  -1.4597858453781939e-01  -1.5162983292571197e-01  -1.3774368127430614e-01  -1.3751702612974406e-01  -1.3287240805279085e-01  -1.4268829846797271e-01  -1.2661214819866110e-01  -1.4396503789275267e-01  -1.3179172731650562e-01  -1.6311807296826505e-01  -1.5572394975141626e-01  -5.7875866124760089e-02  -7.9024867186210421e-02  -1.0548529963816862e-01  -1.3348103605892001e-01  -1.3014898002031727e-01  -1.3328024354998569e-01  -1.2627556565314843e-01  -1.3015571396953768e-01  -1.3090487911638077e-01  -1.3471226381863513e-01  -1.2768573388395266e-01  -1.2445037034836423e-01  -1.4356647158375246e-01  -1.5321994199151212e-01  -1.3888617023753769e-01  -3.8549155952713209e-02  -4.3931233742450691e-02  -1.7023153832319057e-01  -9.8630879772069482e-02  -1.6063091089076748e-01  -1.2594806003158171e-01  -1.3370142973162022e-01  -1.2204863494282302e-01  -1.7547583841895212e-01  -1.2439222460808554e-01  -1.5331917403511830e-01  -1.1696923696831928e-01  -1.2478202015550689e-01  -1.1920879092547551e-01  -1.4272847126312491e-01  -1.7459794581734835e-02  -5.7888082863796764e-02  -5.9742384667314623e-02  -9.1915830187506986e-02  -9.1644298961996912e-02  -1.7256472575763773e-01  -1.4285599382672165e-01  -1.8696481985570404e-02  -4.1343789139339227e-03  -3.1040030814885367e-02  -3.3854383231594086e-02  -6.5654053882637550e-02  -7.0970801233009181e-02  -3.9318054207301938e-02  -4.6737778069287916e-03  -1.4393439208667513e-02  -1.1028423504103804e-01  -1.1179161328459740e-02  -4.6845825459999269e-02  -4.9873174637795968e-02  -8.7095737397450468e-02  -1.2327629646643255e-01  -3.8910574226897705e-02  -8.1949536429130332e-02  -7.4663714951648807e-02  -1.0934403327323809e-01  -1.1678826980511427e-01  -9.2954676233487965e-02  -1.2077263019957803e-01  -9.5385696568323936e-02  -6.1958516006612313e-02  -1.3623492139362633e-01  -8.3496271211418449e-02  -8.1313475810516678e-02  -1.2165978848350961e-01  -3.6010005350259576e-02  -7.2431872972563288e-02  -3.3643969569899353e-02  -7.5487305832099866e-02  -6.5591178249431850e-02  -1.0029189559536511e-01  -8.0388840618669827e-02  -1.0801115726157394e-01  -7.8426352299647215e-02  -1.1281924900555972e-01  -1.0336582624591666e-01  -1.3718767145000491e-01  -8.2470395036231117e-02  -1.2881963228636706e-01  -1.5195501028892841e-01  -5.1674993498199817e-02  -1.2184033120292113e-01  -1.6213526161985617e-01  -1.3250199454139003e-01  -1.3408348821815089e-01  -1.5345219217712355e-01  -1.5693433293853601e-01  