<?xml version="1.0"?>
<VTKFile type="UnstructuredGrid"  version="0.1"  >
<UnstructuredGrid>
<Piece  NumberOfPoints="1151" NumberOfCells="2204">
<Points>
<DataArray  type="Float64"  NumberOfComponents="3"  format="ascii">0 0 0  0 1 0  1 1 0  1 0 0  1.1 -0.1 0  -0.1 -0.1 0  1.1 1.1 0  -0.1 1.1 0  0.539936513715885 0.5229705570758477 0  0.5997721146035313 0.6902308615949069 0  0 0.9499999999997918 0  0 0.8999999999995836 0  0 0.8499999999996529 0  0 0.7999999999999998 0  0 0.7500000000003466 0  0 0.7000000000006934 0  0 0.6500000000010401 0  0 0.6000000000013869 0  0 0.5500000000017335 0  0 0.5000000000020587 0  0 0.4500000000018723 0  0 0.4000000000016644 0  0 0.3500000000014564 0  0 0.3000000000012483 0  0 0.2500000000010403 0  0 0.2000000000008322 0  0 0.1500000000006241 0  0 0.100000000000416 0  0 0.05000000000020799 0  0.04999999999989965 0 0  0.09999999999981467 0 0  0.1499999999997036 0 0  0.1999999999995579 0 0  0.2499999999994121 0 0  0.2999999999992664 0 0  0.3499999999991206 0 0  0.3999999999989749 0 0  0.4499999999988292 0 0  0.4999999999986943 0 0  0.5499999999988151 0 0  0.5999999999989468 0 0  0.6499999999990784 0 0  0.69999999999921 0 0  0.7499999999993417 0 0  0.7999999999994734 0 0  0.8499999999996051 0 0  0.8999999999997368 0 0  0.9499999999998684 0 0  1 0.04999999999989965 0  1 0.09999999999981467 0  1 0.1499999999997036 0  1 0.1999999999995579 0  1 0.2499999999994121 0  1 0.2999999999992664 0  1 0.3499999999991206 0  1 0.3999999999989749 0  1 0.4499999999988292 0  1 0.4999999999986943 0  1 0.5499999999988151 0  1 0.5999999999989468 0  1 0.6499999999990784 0  1 0.69999999999921 0  1 0.7499999999993417 0  1 0.7999999999994734 0  1 0.8499999999996051 0  1 0.8999999999997368 0  1 0.9499999999998684 0  0.9499999999997918 1 0  0.8999999999995836 1 0  0.8499999999996529 1 0  0.7999999999999998 1 0  0.7500000000003466 1 0  0.7000000000006934 1 0  0.6500000000010401 1 0  0.6000000000013869 1 0  0.5500000000017335 1 0  0.5000000000020587 1 0  0.4500000000018723 1 0  0.4000000000016644 1 0  0.3500000000014564 1 0  0.3000000000012483 1 0  0.2500000000010403 1 0  0.2000000000008322 1 0  0.1500000000006241 1 0  0.100000000000416 1 0  0.05000000000020799 1 0  -0.1 1.05000000000004 0  -0.1 1.000000000000079 0  -0.1 0.9500000000001624 0  -0.1 0.9000000000003032 0  -0.1 0.850000000000444 0  -0.1 0.8000000000005848 0  -0.1 0.7500000000007256 0  -0.1 0.7000000000008665 0  -0.1 0.6500000000010508 0  -0.1 0.6000000000012352 0  -0.1 0.5500000000014196 0  -0.1 0.500000000001539 0  -0.1 0.4500000000014195 0  -0.1 0.4000000000013 0  -0.1 0.3500000000011588 0  -0.1 0.3000000000010178 0  -0.1 0.2500000000008986 0  -0.1 0.2000000000007579 0  -0.1 0.1500000000006174 0  -0.1 0.1000000000005272 0  -0.1 0.05000000000040083 0  -0.1 2.671196597248127e-13 0  -0.1 -0.0499999999998666 0  -0.0500000000000906 -0.1 0  -1.730560139634463e-13 -0.1 0  0.04999999999975802 -0.1 0  0.09999999999961506 -0.1 0  0.1499999999994613 -0.1 0  0.199999999999302 -0.1 0  0.2499999999991446 -0.1 0  0.2999999999990088 -0.1 0  0.3499999999988296 -0.1 0  0.3999999999986936 -0.1 0  0.4499999999985143 -0.1 0  0.4999999999984002 -0.1 0  0.5499999999985247 -0.1 0  0.5999999999986493 -0.1 0  0.6499999999987955 -0.1 0  0.6999999999989417 -0.1 0  0.7499999999990659 -0.1 0  0.7999999999992116 -0.1 0  0.8499999999993573 -0.1 0  0.8999999999994526 -0.1 0  0.949999999999584 -0.1 0  0.9999999999997226 -0.1 0  1.049999999999861 -0.1 0  1.1 -0.0500000000000906 0  1.1 -1.730560139634463e-13 0  1.1 0.04999999999975802 0  1.1 0.09999999999961506 0  1.1 0.1499999999994613 0  1.1 0.199999999999302 0  1.1 0.2499999999991446 0  1.1 0.2999999999990088 0  1.1 0.3499999999988296 0  1.1 0.3999999999986936 0  1.1 0.4499999999985143 0  1.1 0.4999999999984002 0  1.1 0.5499999999985247 0  1.1 0.5999999999986493 0  1.1 0.6499999999987955 0  1.1 0.6999999999989417 0  1.1 0.7499999999990659 0  1.1 0.7999999999992116 0  1.1 0.8499999999993573 0  1.1 0.8999999999994526 0  1.1 0.949999999999584 0  1.1 0.9999999999997226 0  1.1 1.049999999999861 0  1.05000000000004 1.1 0  1.000000000000079 1.1 0  0.9500000000001624 1.1 0  0.9000000000003032 1.1 0  0.850000000000444 1.1 0  0.8000000000005848 1.1 0  0.7500000000007256 1.1 0  0.7000000000008665 1.1 0  0.6500000000010508 1.1 0  0.6000000000012352 1.1 0  0.5500000000014196 1.1 0  0.500000000001539 1.1 0  0.4500000000014195 1.1 0  0.4000000000013 1.1 0  0.3500000000011588 1.1 0  0.3000000000010178 1.1 0  0.2500000000008986 1.1 0  0.2000000000007579 1.1 0  0.1500000000006174 1.1 0  0.1000000000005272 1.1 0  0.05000000000040083 1.1 0  2.671196597248127e-13 1.1 0  -0.0499999999998666 1.1 0  0.6365829762597062 0.6806514033922292 0  0.6717129007616663 0.660982225719029 0  0.7011786321890158 0.6312987653116895 0  0.7168478122572424 0.5936015294799222 0  0.7252817422288906 0.5556951695340414 0  0.7282856670066767 0.5181511795898429 0  0.7277035012716998 0.4810707355314321 0  0.7234266616359922 0.4443495497139645 0  0.7156029510758634 0.408272472796182 0  0.7038966991354081 0.3731212170460101 0  0.688109954321809 0.3390986020027567 0  0.6671646286090892 0.306943946897143 0  0.6393391261075971 0.2785023610014358 0  0.6042966600934222 0.2572604726966775 0  0.5651816723919699 0.2499226160774152 0  0.5274698684649065 0.2516933845598613 0  0.4923397111505081 0.2591459085087838 0  0.4592498111169986 0.2695079240599935 0  0.4276682228906716 0.2818536232006487 0  0.3974680183045186 0.2961145565167574 0  0.3685490454746234 0.3121319039895568 0  0.3408327782659901 0.329747479364972 0  0.3141831116098817 0.3488259006649898 0  0.2886803273712433 0.3694959955681794 0  0.2641085925793292 0.3916280336307134 0  0.2406323740380773 0.4153724123177698 0  0.2183780333055357 0.441168745022703 0  0.1978895508008568 0.4701587543613165 0  0.1846528550748462 0.5055879777897102 0  0.1923248529341595 0.5466002264751749 0  0.2159113530963888 0.5760222731851374 0  0.243014225378985 0.5989684145697177 0  0.2712733143418918 0.618631468016102 0  0.3003896129431394 0.6359956397278584 0  0.3305288855726464 0.6509777108814391 0  0.3616716116972357 0.6636687073049865 0  0.3935473702106737 0.674387049927041 0  0.4262403837172571 0.6828385595202582 0  0.4596308975143312 0.6892188098092478 0  0.4936259868250584 0.6936207003973431 0  0.5283309205927483 0.6956082548325678 0  0.5637456239564769 0.6948013776306403 0  0.3556066786418923 0.6224594354032438 0  0.3462424507754313 0.3716749668468926 0  0.6475738225075091 0.3378821106648507 0  0.2672826804042923 0.4341378799077738 0  0.5229171103246087 0.2838334669123868 0  0.6437524550933901 0.640826468267445 0  0.4301623748575198 0.3207383308748064 0  0.4197305198215027 0.6404099059292589 0  0.2972926587918403 0.5924910725935818 0  0.6860078898449569 0.4328529768440589 0  0.6954859244280238 0.5019828945187634 0  0.2421990068261318 0.554580959233047 0  0.688836968721146 0.5731393087753508 0  0.5848142168701469 0.6565386134557631 0  0.4820514306637251 0.6529293583005658 0  0.5836679027454978 0.2855739007973416 0  0.2350656392197245 0.4848184665075262 0  0.2150574586905628 0.5210797442260628 0  0.3733344805235544 0.3526985862526931 0  0.3785264714302778 0.394167096392018 0  0.3509300622539764 0.4140273173741857 0  0.3825845244697598 0.4362274000304226 0  0.4105385717536052 0.4160724852910755 0  0.3533065767406036 0.4574955159891212 0  0.3867747976567164 0.4807150835260169 0  0.3585371751435664 0.5108444888690372 0  0.3962753514146289 0.5293700784390251 0  0.4308258898701641 0.4964437642901088 0  0.4294042973187451 0.5536288218436639 0  0.4021725695294272 0.5744541535514086 0  0.3243336269962816 0.4815912399441282 0  0.3247632122724443 0.5260492711704515 0  0.2945602179300523 0.5008990759131909 0  0.3469532324399158 0.5494656508885708 0  0.2959483231566056 0.5472872485522616 0  0.2652014496634243 0.517666171167779 0  0.4280177543203197 0.5973393926787438 0  0.4595410737229914 0.5812255226175544 0  0.4650219566687447 0.53199028838512 0  0.4768897940130479 0.4759967522732929 0  0.5395006544579842 0.4452053929728383 0  0.4656587665730323 0.4068664557002619 0  0.5290439399194862 0.3871135515870764 0  0.6070618723723505 0.4822629464440181 0  0.5917659705233613 0.5519774996044381 0  0.6012833145428681 0.4217155586298926 0  0.4541983493434915 0.6228880352458174 0  0.4878032207899563 0.607330665209045 0  0.5166914246838082 0.6307340587255869 0  0.405545607962296 0.3754115005906001 0  0.3230352264470913 0.4360904752349167 0  0.5226327143041894 0.587378415284286 0  0.5498238746093391 0.6129753628532616 0  0.5477920971923168 0.6547773637446055 0  0.5587513236249678 0.5739670546839641 0  0.5873106166660194 0.5920775409056602 0  0.6264337771312281 0.5732143280684605 0  0.6327975481573707 0.5322214948627105 0  0.6124623732632171 0.6202843136648711 0  0.3238179813922368 0.5689997873207061 0  0.2668424065444793 0.4749911148148459 0  0.3199222882227716 0.3913175449173702 0  0.6553099759703834 0.5998116066905747 0  0.3853364311940491 0.6353562615610423 0  0.4605047096065052 0.307009910800623 0  0.4614634471259226 0.3424621644830722 0  0.4901788487414644 0.328741627839742 0  0.4014697877920754 0.3359001921881913 0  0.2929957395377824 0.4140651845946521 0  0.3260875833148754 0.6097205017488522 0  0.2694208615172503 0.5715907475675746 0  0.6602709279772362 0.5534251054400738 0  0.6943628279503771 0.4670473542598294 0  0.6613502284077455 0.4574844163558391 0  0.6514127773668499 0.4208189789175542 0  0.6777310632856627 0.3975311829247271 0  0.6404042885941088 0.3839862421610253 0  0.4897321903698125 0.2936605884334272 0  0.4363667348448226 0.3949105513096195 0  0.6939477035431761 0.537086924596435 0  0.4109666933080893 0.4533366278299759 0  0.4438216417533195 0.4374855008836244 0  0.4322977174117844 0.3574702866832866 0  0.495864031374181 0.5585791654735504 0  0.6715616141660538 0.3663294690300608 0  0.6102959948324006 0.3529428615543537 0  0.6118867066077611 0.3162847772147155 0  0.5779637249589054 0.328152405717289 0  0.5767592194191925 0.3627231004816431 0  0.5493747150
[...]
<PointData  Scalars="v"> 
<DataArray  type="Float64"  Name="v"  format="ascii">6.1287740786358776e-20  1.1438805828709514e-19  4.9697455991236303e-21  4.1684752540446582e-21  -1.0694192855448777e-21  -3.5943932546756320e-21  -5.2120419747773005e-22  -6.9167078952846191e-21  7.1944220498041068e-03  6.0848749822222121e-03  -6.4814526785508252e-20  6.3754490269852496e-19  7.2227972739213909e-19  -4.1773859642963096e-19  1.7840192686870099e-18  1.4809754581894234e-18  -1.1921858700033630e-18  4.1990254090475917e-19  -2.1978622490047877e-19  1.2912127320264857e-19  1.4037807939556867e-18  4.3866496153879206e-19  -5.9865675695800631e-19  8.7073942469820078e-19  -1.3630977873334529e-18  2.7147597394800499e-19  6.3625342286122320e-19  6.3932997894793300e-19  -2.7103374084025454e-19  3.8894008881634057e-19  3.6002204254066395e-19  2.1839595545977334e-19  -1.7834225844155300e-19  5.7646184068860394e-19  -2.0568862835795810e-19  -2.4058748901580487e-18  -2.2118041403093039e-18  1.0746803054801630e-18  1.1456388582643947e-18  1.1309672192646046e-18  -9.0299818131579812e-20  6.6779775654051458e-19  8.8493698851779099e-19  5.2061122981241296e-19  6.9640481061842458e-19  1.4456007465660482e-19  3.4116372289041553e-19  -1.4333475245604009e-19  4.0388843983792192e-20  3.9763785838760621e-21  4.7773441185356634e-19  3.3906683739824879e-18  -4.2921645020074297e-18  -1.0398788219294098e-19  4.1038758434685951e-19  3.7882135821938051e-19  -8.0729962608001953e-18  -5.2613809430975803e-19  7.6492451244341847e-18  9.8567381369647306e-19  -1.2521055432806268e-18  3.8380601137447131e-20  6.0989376140180350e-19  -3.4211162017350281e-18  -1.4103536935206255e-19  -1.2201582998359626e-19  8.9134402433073147e-19  -1.9603584996813483e-20  2.0273578810152516e-18  2.5879924586402881e-19  -3.2829427937186209e-18  2.0629710109237992e-19  4.2286307017846063e-19  1.1784410892519884e-19  6.5223020920890330e-18  -6.2918014852771168e-18  -6.3991629021199918e-18  5.8142375975933803e-18  -1.4947186239965917e-20  -4.9781193598391712e-18  -4.5731429640112277e-18  3.1574229464965716e-18  1.4458974631975032e-19  2.4023681047084620e-19  -8.2477022060807585e-19  -6.2338128235804290e-19  6.0471633902521534e-21  2.3226281709258680e-21  9.9506623168526730e-21  8.7079245200541120e-20  5.8000784928515015e-20  1.9680436582706789e-20  1.9506304215167781e-19  5.8157437020686878e-20  -5.8991483107202424e-20  -2.8927836217925279e-20  3.3251981249595153e-20  5.0734524077359880e-20  1.8377700945628061e-19  2.4358391152885756e-20  5.7760142088150898e-20  8.0153617238597730e-20  -1.3852066341730238e-19  -4.3416621535882512e-20  1.1112705887393076e-19  7.6030041055224689e-20  -3.0786494297093270e-21  -1.2700596695587994e-20  9.1313149039645016e-21  -1.8697769644135052e-21  8.6897577221542353e-21  4.6010659211434775e-20  5.6295176528151842e-20  1.8859848578932659e-20  -1.4291627950186004e-20  6.2668814665438373e-20  -9.3124768657792522e-20  -3.4940185757467856e-19  -2.7418336909692378e-19  9.6204798969609025e-20  2.0023640450433370e-19  8.1109469737470705e-20  3.8707411501439208e-20  8.1397026122199846e-20  7.3811146379863150e-20  8.2348946978977099e-20  8.1110043844045303e-20  4.4640676501184765e-20  2.4795112505259806e-20  5.5283794154628969e-22  -1.0095685714235543e-20  3.8487285900405775e-21  -6.6147750246439969e-22  2.3887541717711200e-21  -4.7585751541156405e-21  1.8538377364586337e-20  7.8874961307369563e-20  5.2215892596382505e-20  -6.0852565787088250e-20  -2.2606048376470899e-20  5.2048803014270367e-20  6.4802596046705554e-20  1.0222457702512482e-20  -4.6197187685311023e-20  1.0562055602084683e-20  8.4998817085322148e-20  -8.9822409056124947e-20  -2.2515068542743921e-20  8.1927337266685453e-20  5.9850331022345641e-20  -1.8658914916967067e-20  -1.9755049359583415e-20  -3.7583576198284557e-21  8.1298302786201595e-22  1.4930234895584351e-22  1.1667343277218318e-21  -3.0573108791195691e-21  2.1809591403526357e-21  2.8880617614646668e-20  3.5074425057362797e-20  1.3062224000034141e-20  2.8887992000161595e-20  5.0232097504888218e-20  3.2848518785538281e-20  1.1922375231857242e-20  1.4555556070558376e-20  -1.5882244880657135e-20  -5.7513160611365944e-20  2.5840592358801390e-20  1.3392149978747872e-20  -6.1758620408544981e-20  -3.2472129169831442e-20  1.5759282243141162e-20  4.0543884163156734e-20  3.3599117682723737e-20  1.2997298321418352e-21  4.5236423113945869e-21  5.8641110660229957e-21  6.0273913459834814e-03  5.9818513561502385e-03  5.9543429630557962e-03  5.9810667464315790e-03  5.9934775978385518e-03  5.9705651660093813e-03  5.9020101947257694e-03  5.7897116731537995e-03  5.6348061567337189e-03  5.4334311244557945e-03  5.1915322906982489e-03  4.9116543097029071e-03  4.6286190744419427e-03  4.4134293066907596e-03  4.3510950166665754e-03  4.3941825009317630e-03  4.4864795315559779e-03  4.5919354231372233e-03  4.6909619400368995e-03  4.7744646325703060e-03  4.8204572279876403e-03  4.8229163482402405e-03  4.7733782418677350e-03  4.6727389074555058e-03  4.5166060856564882e-03  4.3083484253678981e-03  4.0543318558175397e-03  3.7764693665986128e-03  3.5985689156172447e-03  3.7609423370013723e-03  4.1608048584023637e-03  4.5710855065388585e-03  4.9341612745903603e-03  5.2459895447486658e-03  5.5132041425527412e-03  5.7205946698962867e-03  5.8854382197252525e-03  6.0042596337053465e-03  6.0829602045808480e-03  6.1272866892149672e-03  6.1395895965301074e-03  6.1255925790310384e-03  6.0281847513311690e-03  5.3709461959695641e-03  5.5201870707130502e-03  4.8836209839023996e-03  4.9962811068081127e-03  6.4631284403026540e-03  5.3354205540007390e-03  6.4331416390279190e-03  5.4693973139355182e-03  6.2040216799298369e-03  6.4301314082635891e-03  4.7214925893598403e-03  6.4724143702527470e-03  6.5935658522658152e-03  6.6177450698890090e-03  4.9826486819946805e-03  4.5549261819267705e-03  4.2740039575979672e-03  5.3998563432311342e-03  5.8164444621854033e-03  5.7352981438476124e-03  6.1541514966516530e-03  6.2122095226350869e-03  6.0116162219783689e-03  6.4051627762290193e-03  6.2323839122698701e-03  6.5955243736337769e-03  6.7789435851750273e-03  6.8319055470200795e-03  6.6112873616239309e-03  5.7940973996755017e-03  5.8828379272091507e-03  5.4716195937532242e-03  6.1357116835823603e-03  5.5192153740028739e-03  5.0612300029479040e-03  6.7190324199912438e-03  6.9440608602926958e-03  7.0165061536152885e-03  6.9177691375611455e-03  6.8729651677843662e-03  6.3970048269018634e-03  6.3425593803344690e-03  6.9518310575033054e-03  7.1177462377030520e-03  6.5957350834610368e-03  6.7279899260466961e-03  6.9433566939589983e-03  6.8528095857022389e-03  5.8256091839069589e-03  5.5849163409928317e-03  7.1034168908122421e-03  6.9800649316366864e-03  6.6729929567889042e-03  7.1400351745377596e-03  7.0260009175223464e-03  6.9383273561049062e-03  6.9530852405762615e-03  6.7798199461297981e-03  5.8500429861061097e-03  5.0084387874675786e-03  5.2785258405533232e-03  6.6483847587226691e-03  6.2200473875177603e-03  5.2523681633685725e-03  5.7011690259163045e-03  5.5927112677597668e-03  5.3877630945091846e-03  5.1202454197170422e-03  5.7700532784528014e-03  5.1225891463277688e-03  6.7533506901622416e-03  6.3231594314861360e-03  6.5406553310920186e-03  6.3562729923785912e-03  5.9868478846950594e-03  6.0811840605838347e-03  5.1223514134826975e-03  6.1761590686595577e-03  6.4788926211834285e-03  6.4559381713506468e-03  6.5523821626455496e-03  5.7720919304963458e-03  7.1181821456795082e-03  5.7155074374641204e-03  5.8458042200104331e-03  5.3664318356208942e-03  5.5955256300262469e-03  6.0492574280612580e-03  5.7514183788887775e-03  6.2505064862475954e-03  5.2443749941934173e-03  6.4189910762720258e-03  6.6810260495303465e-03  6.8671217758210345e-03  5.3403947507974720e-03  6.0340241374710092e-03  6.4229432750065596e-03  6.3542754165235660e-03  6.4729136028066243e-03  6.5592305962362445e-03  6.7078228447787170e-03  6.8311009128231718e-03  6.1285184512578196e-03  6.4427959023156426e-03  7.0496884165646267e-03  4.6647951217505812e-03  4.6267021008977892e-03  6.8531580248950485e-03  6.3553131189549557e-03  5.4496904414677114e-03  6.6552911925500660e-03  7.0781208259693756e-03  6.1151018806957771e-03  7.1044559070756021e-03  6.5889625883373045e-03  4.8231595202905776e-03  4.9555117306834011e-03  5.9120473448407672e-03  6.4892309197544344e-03  5.1340251572773591e-03  6.3391374639009748e-03  6.1153450005475502e-03  6.4042082388502180e-03  6.4061809431330812e-03  5.7846534575498841e-03  4.9343160090703445e-03  5.6444925534080634e-03  5.9256469873941366e-03  4.5364352175713968e-03  4.5949054769956347e-03  4.8875662896252217e-03  5.8727537795875834e-03  5.5139465389580184e-03  5.7917533402662051e-03  4.3373713146620200e-03  4.3463798536273668e-03  2.0525217720252677e-04  2.2320517733339198e-04  2.7874221746573065e-04  3.9857712492663835e-03  2.1868238726960250e-04  2.6767318352136359e-04  3.6228168061309745e-04  2.4981941299122978e-04  3.0443161432372663e-04  3.8233472071364498e-04  2.1805874132304565e-04  2.2259132117963105e-04  4.1273687813076670e-04  4.1722213540629745e-03  2.8198699694290190e-04  2.4257393513565055e-04  5.7192523309223496e-03  4.2698847752423007e-03  5.8625341257619208e-04  3.6395317639990562e-04  5.9444365872606602e-03  2.9355132278246435e-04  3.0452532719761253e-04  1.7741778723532098e-04  2.5957755033892080e-04  2.0413066460283255e-04  1.4150947597868393e-04  2.7682948452240053e-04  1.8085014799647015e-04  2.0605479570706803e-04  2.0360844472996131e-04  1.2880003554801582e-04  7.6179913564921781e-05  4.1635051692273271e-03  4.1100799961753176e-03  3.9455907532582133e-03  3.8126941029213825e-03  3.9863458072803230e-03  3.5999208116922260e-03  3.7643577331469523e-03  3.6264994370811894e-03  3.3119419514763110e-03  3.4505424186979609e-03  2.9625486710478412e-03  3.0665851421113745e-03  3.5220081368676414e-03  3.0941484202257779e-03  3.6149019826296350e-03  3.0394734312875231e-03  3.4372430091149436e-03  2.6237267120728671e-03  2.8538160341344838e-03  3.1814481222073674e-03  2.7891241339633747e-03  2.5738572170621956e-03  3.7790941698168093e-03  3.4760845491698931e-03  2.5534179343598674e-03  2.2627921127077650e-03  4.0942417295819896e-03  3.7425521006775094e-03  3.0673246258858394e-03  3.2787867120717051e-03  3.9666300964990219e-03  3.4639328042391808e-03  4.1385333194929102e-03  3.6079417670266119e-03  4.2615793643355406e-03  3.7020022623800025e-03  4.3309366472806948e-03  3.7422755483970008e-03  4.3192520702650412e-03  3.7179321982266744e-03  4.2389103919977401e-03  3.6238686352738675e-03  4.0693872141912531e-03  3.4478977617853099e-03  3.8133158905917031e-03  3.1853568750944291e-03  3.4755536665115380e-03  2.8400456841096581e-03  3.0378225772357552e-03  3.6505846246332159e-03  3.1212700965288741e-03  3.7020659866187312e-03  2.9815473838728599e-03  3.0952205408249439e-03  3.6471843694791477e-03  2.4264152241436406e-03  2.9841933913311767e-03  3.5072188450643647e-03  2.2121135627505115e-03  3.1229151059128843e-03  3.0155838568448300e-03  4.2076977053447538e-03  4.1598267375780387e-03  3.9929283962375139e-03  3.3037217542462400e-03  3.7765666764825448e-03  3.0574802157696808e-03  3.5239035795337019e-03  4.2047692783380546e-03  3.9356852150825555e-03  3.2492510171773497e-03  3.6430069703381296e-03  4.2928915886614721e-03  3.9728190271180056e-03  3.3207195250163622e-03  3.6279422604705964e-03  2.9746261587453794e-03  3.2491629383727197e-03  3.9471786307429223e-03  3.4413772854524414e-03  2.8427288079122190e-03  2.9651983437404858e-03  3.4921262318268098e-03  2.9781539276096817e-03  2.4508309581169258e-03  3.4325114189008815e-03  2.8677194518397461e-03  3.2503414206995541e-03  2.6450296946067867e-03  2.9594681844700398e-03  4.5645416241810455e-03  2.2891948547459698e-03  1.9134601622686574e-03  3.9607154822345328e-03  2.5287343886239320e-03  2.5564313535920966e-03  2.3244469160898177e-03  2.5789296265340796e-03  1.8282474502954358e-03  4.6167553680836427e-03  2.6169813605435425e-03  2.2803036686949818e-03  1.6685447612257407e-03  2.5552873795578477e-03  2.2840270624922359e-03  4.7025934453912973e-03  1.6122454070885311e-03  4.3342102574582221e-03  4.8637508041978698e-03  1.8878636263566148e-03  4.5930181718195949e-03  5.0909425425338696e-03  1.2753560815448048e-03  3.6167981403036694e-03  4.8523776238629055e-03  1.2575359455553891e-03  1.3784619838076509e-03  3.7878772018448566e-03  3.3821520457366894e-03  3.5931731831535295e-03  3.1044670706092308e-03  3.3301095045357486e-03  2.8258253927582596e-03  3.0051559802030895e-03  2.5892445775133398e-03  2.4773238748417689e-03  2.6398676316260316e-03  3.1805654678788331e-03  2.8036332888627950e-03  3.3156984762399565e-03  2.9291890080043914e-03  3.4062950071079364e-03  3.0048040655693727e-03  2.5161940919386384e-03  2.5755020373642401e-03  3.0280529991529507e-03  2.5652079192260754e-03  2.9575050727976109e-03  2.4681224416337596e-03  2.7912643305075301e-03  2.0948292034005051e-03  2.2903969068770427e-03  2.5259434408664403e-03  3.0542430847155817e-03  2.7010728843168425e-03  2.0831097048647695e-03  3.4044282528614047e-03  2.2905764574509507e-03  2.1664949335362272e-03  2.2750199782225365e-03  2.9244656171311788e-03  2.4081061335863804e-03  3.0227210390741436e-03  2.4730290247609822e-03  3.7809624820570164e-03  1.7811708143935310e-03  2.9500990467418550e-03  2.4890104233406055e-03  3.4450009050695906e-03  3.6062024855506619e-03  3.3077100070762915e-03  1.2816224366842439e-03  4.7345816923202427e-03  1.3059365248876522e-03  1.3868881567127337e-03  4.1693160165330815e-03  1.9118944520125631e-03  2.2061763685277489e-03  5.2162031107071526e-03  5.2232262234597846e-03  4.7267196965926029e-03  4.8039574522879130e-03  4.4712948230214164e-03  3.4414528550094693e-03  3.3529596178037495e-03  5.0169708104962499e-03  3.4123067786524389e-03  3.8351769955460207e-03  3.2169603806473297e-03  1.8775102205506543e-03  1.5649048641268506e-03  4.7753682444654942e-03  1.6499732966399042e-03  1.1045894824733761e-03  1.4026031324869677e-03  8.8231404740030485e-04  1.1126642055919258e-03  3.7743590022291883e-03  1.5859995262489958e-03  1.2038382961542550e-03  1.6470575562143144e-03  8.0596189455882470e-04  1.1815402599680020e-03  1.5894545729330111e-03  5.7355987470383519e-03  5.6133887454303368e-03  5.5368998696677506e-03  5.6422029541491111e-03  5.3973123832094074e-03  1.7666666207316057e-03  1.4986419193494032e-03  5.3411324785201759e-03  5.1235080436651936e-03  5.4923803726767235e-03  1.9055107170523145e-03  1.8995710289717840e-03  2.0103302036611477e-03  1.1752618535831370e-03  5.3871814036094371e-03  5.1036593994356373e-03  6.9462619917925355e-04  1.9371982737414219e-03  1.2636010947273215e-03  1.5913922460165212e-03  5.4638310570685796e-03  5.5990610302973278e-03  1.1928715015190603e-03  2.0345653873819207e-03  3.0646616217771413e-03  2.9479811454031072e-03  1.2133360800661462e-03  1.5100895100567092e-03  1.4598731618993601e-04  1.0096290771681624e-04  1.4514039152265860e-04  1.9973980049194529e-03  1.5544172369001091e-03  1.6500808026309317e-03  1.1494578784027436e-03  1.2379640406535071e-03  1.4556366057352004e-03  5.0228053734982870e-03  2.6146642184165544e-03  4.2048734854121736e-03  4.1803877628089842e-03  4.0957043260803003e-03  5.5484762994931526e-03  8.9668766579210349e-04  8.1091836450823717e-04  4.3499119834835174e-03  8.6646422065144401e-04  1.3520347298852826e-03  4.7935018198216285e-03  5.0954109744380709e-03  4.5001422733804116e-03  4.4943099810335202e-03  5.3128438479833860e-03  2.3761789470055751e-03  1.8268518660503434e-03  1.9672730135444141e-03  1.2214226956048086e-03  1.3339308431459724e-03  2.1128443123897191e-03  1.5237236629492398e-03  1.0677875174753279e-03  1.4243589326116269e-03  7.3355570782645077e-04  7.3947097993445204e-04  2.1070885904083659e-03  1.4523666889709672e-03  7.6343474850253698e-04  1.2341231435725878e-03  8.5930977342700771e-04  6.3944112737606578e-04  5.6516287608529983e-03  5.7401599759265582e-03  3.1672404233342305e-03  3.5739871058705036e-03  2.1996050662294615e-03  1.4104871506032122e-03  1.3021637931863426e-03  1.2836078512616436e-03  2.8801886080542342e-03  3.2724896758060326e-03  3.4844993748334115e-03  3.7548189873780440e-03  3.7562792598869652e-03  4.0318389126388528e-03  4.0252304830509606e-03  4.2600975911784699e-03  4.2262762518752769e-03  3.9272369124080091e-03  4.1413443249750260e-03  3.8153718062943860e-03  3.9969020052191386e-03  4.3001647059417369e-03  4.3101038125223610e-03  4.0520814368970636e-03  5.6579597650852883e-03  5.7308787248567970e-03  5.5823530147228609e-03  5.3537237617956406e-04  5.4495546720538177e-04  1.3308688651536230e-03  3.4014795709113445e-03  2.1556838704455163e-03  1.2955788984882264e-03  7.4571222376066130e-04  3.9392235126876670e-03  4.0837071813788275e-03  5.5355253262645929e-03  1.0289719354346900e-03  1.3972732333588963e-03  8.0361035482336336e-04  1.1908222528161378e-03  1.8077679160728502e-03  1.5421137769665327e-03  9.1406196472917033e-04  1.2595079477990452e-03  1.9078148122990293e-03  1.5930696429159110e-03  3.8273185798040942e-03  4.3639760466567560e-03  4.4421173809896771e-03  4.7999637705677337e-03  4.8501095752872415e-03  5.1684665634348049e-03  4.6897148329801564e-03  5.0604268805017746e-03  5.1963262874016800e-03  5.3397153602706077e-03  4.1369189313102779e-03  4.4291912940307900e-03  4.4296164657449079e-03  4.1566531059062601e-03  8.4901201988164116e-04  1.2398731296343240e-03  3.7439170929200829e-03  4.8268354188945707e-03  5.1235356830469274e-03  4.9316521379264124e-03  5.3146158836502796e-03  5.1473866670729406e-03  5.2652393613305364e-03  5.3702790817448795e-03  5.5700519266120964e-03  5.4759069827381565e-03  4.8987407293812702e-03  4.8959665421458264e-03  4.3763845293498969e-03  4.4642913004133629e-04  4.7088993530826253e-04  4.3134190506055490e-03  2.4941430664108095e-03  3.3388127042128855e-03  5.1456065087452972e-03  3.5463068173992702e-03  5.3489391621239640e-03  4.0884356109688108e-03  4.4163326774830439e-03  4.8048805450135413e-03  5.6413082771311039e-03  3.9883862517819261e-03  4.6261327228508320e-03  5.8185061636413828e-03  2.6898390443576742e-04  8.4744298304222998e-04  8.3376552236087394e-04  1.4114603397476458e-03  1.4715091966083587e-03  4.3949593354908213e-03  5.3370005379402754e-03  2.9609848766358888e-04  1.8947830990683067e-04  8.7802167094244200e-04  8.5085164536934902e-04  1.5864730854660274e-03  1.5652374073544600e-03  8.7379064942931257e-04  1.7478671969848344e-04  3.9756680558780439e-04  1.9289385360318297e-03  2.7986047381301817e-04  8.2241549061078144e-04  9.7505635215531996e-04  1.5215848198208315e-03  5.9472968089306147e-03  3.5819823525016554e-04  7.3561956296470173e-04  5.6930938287993982e-04  1.0041369307865452e-03  1.2435317496397745e-03  7.4112816494071199e-04  1.1551986921920646e-03  8.1477204417273704e-04  4.0578824323473994e-04  1.4908520228142383e-03  8.7747521324041118e-04  1.0008758930595456e-03  1.5435367787070681e-03  4.6384794913015764e-04  1.0424437542904551e-03  3.6693053141835221e-04  7.8334325842412090e-04  5.9519275135385687e-04  1.0675963071057478e-03  7.6713053942468459e-04  1.2153669471559202e-03  8.1503223258054622e-04  1.3574109328509190e-03  1.2888555797208668e-03  1.8573099748876382e-03  9.9020841121964884e-04  1.6110819251997648e-03  4.1899377555465103e-03  4.1682368631022195e-04  5.7707508926167295e-03  4.2222657291962149e-03  3.2394028291232368e-03  5.5883503073208612e-03  4.6547984742243108e-03  5.1137727115010932e-03  2.2525594951563197e-04  3.0091415201895992e-04  5.1120033343784463e-03  3.4441892655838959e-03  5.4371122687692100e-03  3.6896502854261013e-04  2.8806224240165350e-04  4.6292680473343263e-03  1.6289415418326212e-04  4.4945913094718201e-04  2.5513697347778774e-04  2.2838816320484761e-04  4.4289784666565867e-03  2.2423856447151944e-04  2.0906962637475457e-04  2.0425740852223026e-04  4.6064841378841139e-03  3.7458298202570304e-04  2.9208725135541707e-04  3.4567698770543985e-04  7.7417793285827308e-04  5.3030674136474937e-03  3.7082871274299106e-03  2.1887603108543402e-03  2.5612321337479069e-03  2.2335933966