<?xml version="1.0"?>
<VTKFile type="UnstructuredGrid"  version="0.1"  >
<UnstructuredGrid>
<Piece  NumberOfPoints="1151" NumberOfCells="2204">
<Points>
<DataArray  type="Float64"  NumberOfComponents="3"  format="ascii">0 0 0  0 1 0  1 1 0  1 0 0  1.1 -0.1 0  -0.1 -0.1 0  1.1 1.1 0  -0.1 1.1 0  0.5504342214652279 0.5348505343828823 0  0.6118218885892972 0.7146526994663923 0  0 0.9499999999997918 0  0 0.8999999999995836 0  0 0.8499999999996529 0  0 0.7999999999999998 0  0 0.7500000000003466 0  0 0.7000000000006934 0  0 0.6500000000010401 0  0 0.6000000000013869 0  0 0.5500000000017335 0  0 0.5000000000020587 0  0 0.4500000000018723 0  0 0.4000000000016644 0  0 0.3500000000014564 0  0 0.3000000000012483 0  0 0.2500000000010403 0  0 0.2000000000008322 0  0 0.1500000000006241 0  0 0.100000000000416 0  0 0.05000000000020799 0  0.04999999999989965 0 0  0.09999999999981467 0 0  0.1499999999997036 0 0  0.1999999999995579 0 0  0.2499999999994121 0 0  0.2999999999992664 0 0  0.3499999999991206 0 0  0.3999999999989749 0 0  0.4499999999988292 0 0  0.4999999999986943 0 0  0.5499999999988151 0 0  0.5999999999989468 0 0  0.6499999999990784 0 0  0.69999999999921 0 0  0.7499999999993417 0 0  0.7999999999994734 0 0  0.8499999999996051 0 0  0.8999999999997368 0 0  0.9499999999998684 0 0  1 0.04999999999989965 0  1 0.09999999999981467 0  1 0.1499999999997036 0  1 0.1999999999995579 0  1 0.2499999999994121 0  1 0.2999999999992664 0  1 0.3499999999991206 0  1 0.3999999999989749 0  1 0.4499999999988292 0  1 0.4999999999986943 0  1 0.5499999999988151 0  1 0.5999999999989468 0  1 0.6499999999990784 0  1 0.69999999999921 0  1 0.7499999999993417 0  1 0.7999999999994734 0  1 0.8499999999996051 0  1 0.8999999999997368 0  1 0.9499999999998684 0  0.9499999999997918 1 0  0.8999999999995836 1 0  0.8499999999996529 1 0  0.7999999999999998 1 0  0.7500000000003466 1 0  0.7000000000006934 1 0  0.6500000000010401 1 0  0.6000000000013869 1 0  0.5500000000017335 1 0  0.5000000000020587 1 0  0.4500000000018723 1 0  0.4000000000016644 1 0  0.3500000000014564 1 0  0.3000000000012483 1 0  0.2500000000010403 1 0  0.2000000000008322 1 0  0.1500000000006241 1 0  0.100000000000416 1 0  0.05000000000020799 1 0  -0.1 1.05000000000004 0  -0.1 1.000000000000079 0  -0.1 0.9500000000001624 0  -0.1 0.9000000000003032 0  -0.1 0.850000000000444 0  -0.1 0.8000000000005848 0  -0.1 0.7500000000007256 0  -0.1 0.7000000000008665 0  -0.1 0.6500000000010508 0  -0.1 0.6000000000012352 0  -0.1 0.5500000000014196 0  -0.1 0.500000000001539 0  -0.1 0.4500000000014195 0  -0.1 0.4000000000013 0  -0.1 0.3500000000011588 0  -0.1 0.3000000000010178 0  -0.1 0.2500000000008986 0  -0.1 0.2000000000007579 0  -0.1 0.1500000000006174 0  -0.1 0.1000000000005272 0  -0.1 0.05000000000040083 0  -0.1 2.671196597248127e-13 0  -0.1 -0.0499999999998666 0  -0.0500000000000906 -0.1 0  -1.730560139634463e-13 -0.1 0  0.04999999999975802 -0.1 0  0.09999999999961506 -0.1 0  0.1499999999994613 -0.1 0  0.199999999999302 -0.1 0  0.2499999999991446 -0.1 0  0.2999999999990088 -0.1 0  0.3499999999988296 -0.1 0  0.3999999999986936 -0.1 0  0.4499999999985143 -0.1 0  0.4999999999984002 -0.1 0  0.5499999999985247 -0.1 0  0.5999999999986493 -0.1 0  0.6499999999987955 -0.1 0  0.6999999999989417 -0.1 0  0.7499999999990659 -0.1 0  0.7999999999992116 -0.1 0  0.8499999999993573 -0.1 0  0.8999999999994526 -0.1 0  0.949999999999584 -0.1 0  0.9999999999997226 -0.1 0  1.049999999999861 -0.1 0  1.1 -0.0500000000000906 0  1.1 -1.730560139634463e-13 0  1.1 0.04999999999975802 0  1.1 0.09999999999961506 0  1.1 0.1499999999994613 0  1.1 0.199999999999302 0  1.1 0.2499999999991446 0  1.1 0.2999999999990088 0  1.1 0.3499999999988296 0  1.1 0.3999999999986936 0  1.1 0.4499999999985143 0  1.1 0.4999999999984002 0  1.1 0.5499999999985247 0  1.1 0.5999999999986493 0  1.1 0.6499999999987955 0  1.1 0.6999999999989417 0  1.1 0.7499999999990659 0  1.1 0.7999999999992116 0  1.1 0.8499999999993573 0  1.1 0.8999999999994526 0  1.1 0.949999999999584 0  1.1 0.9999999999997226 0  1.1 1.049999999999861 0  1.05000000000004 1.1 0  1.000000000000079 1.1 0  0.9500000000001624 1.1 0  0.9000000000003032 1.1 0  0.850000000000444 1.1 0  0.8000000000005848 1.1 0  0.7500000000007256 1.1 0  0.7000000000008665 1.1 0  0.6500000000010508 1.1 0  0.6000000000012352 1.1 0  0.5500000000014196 1.1 0  0.500000000001539 1.1 0  0.4500000000014195 1.1 0  0.4000000000013 1.1 0  0.3500000000011588 1.1 0  0.3000000000010178 1.1 0  0.2500000000008986 1.1 0  0.2000000000007579 1.1 0  0.1500000000006174 1.1 0  0.1000000000005272 1.1 0  0.05000000000040083 1.1 0  2.671196597248127e-13 1.1 0  -0.0499999999998666 1.1 0  0.6514837661266863 0.7037926668003398 0  0.6895522744692213 0.6821352590358976 0  0.7219486854601825 0.649771920804416 0  0.739437887327298 0.6089259579231759 0  0.74919495537908 0.5681780673351784 0  0.7527899784240278 0.5278974586155848 0  0.7520988140658491 0.4882408209719181 0  0.7471461763661484 0.4491009499112659 0  0.738256258375514 0.4108237551210259 0  0.7250109436208825 0.3737414251139616 0  0.7072789725239373 0.3380226400763746 0  0.6839340224495871 0.3044751678766104 0  0.6534772772343471 0.274547895110945 0  0.6152701252048047 0.2522114208517685 0  0.5732721313827076 0.244461043031987 0  0.5331142220116243 0.2458420373534177 0  0.4959484789564597 0.2530779980706199 0  0.4611060399425833 0.2633011562697548 0  0.4279554421900236 0.2755439311886334 0  0.3963676157678942 0.2898618358519735 0  0.3662452871301826 0.3061291888387452 0  0.3375262764305191 0.3242193647951834 0  0.310047548095188 0.3439907911788313 0  0.2839229786072484 0.3656320354988952 0  0.2588222142474486 0.3889277071383211 0  0.2349546170828354 0.4141173263883941 0  0.2123662726411712 0.4416382329741476 0  0.1914531353516771 0.472757155440232 0  0.1778944545180453 0.5110486951705111 0  0.1856279880778345 0.5558842319708012 0  0.209690387962978 0.5885436996091982 0  0.23727879128549 0.6142201913185754 0  0.2660738646277945 0.6362760747441106 0  0.2958529981036814 0.6557885596809452 0  0.3269401634432998 0.672591565885022 0  0.3594012336760603 0.6865732683977707 0  0.392768311294445 0.6983521665117559 0  0.427180792046955 0.7074537086214114 0  0.462459596109169 0.7142683456307807 0  0.4984616138045661 0.7189884837065901 0  0.535395049971094 0.7210362024784917 0  0.5732133314506153 0.7199935526309214 0  0.3541132353480343 0.6416669552038309 0  0.3442879465941884 0.3695714247663663 0  0.6636947005644954 0.3372952619039686 0  0.262973099374072 0.4351959110381386 0  0.529160963382591 0.279771374891019 0  0.6599925983142373 0.6607680653331285 0  0.4315992573638458 0.3171159938194649 0  0.4213365273678013 0.6614469935445667 0  0.293801474625503 0.6082107882844852 0  0.7066671118268437 0.4375492026193697 0  0.7173137339378183 0.5111454867600838 0  0.2371487668037879 0.5657498561601807 0  0.7095678802983335 0.5874023546270812 0  0.5965736257767665 0.6783858566527349 0  0.4871548282251407 0.6749786067926551 0  0.5940455119612322 0.2821206906286551 0  0.2300007911928853 0.4895809957358757 0  0.2093314437215715 0.5286173441765472 0  0.3723474397212405 0.3498640769769444 0  0.3786896419009095 0.3946282174668491 0  0.3500375907065454 0.4154127456569765 0  0.3835849257644197 0.4400567830122436 0  0.4127564923273409 0.418891213475327 0  0.3530650282708092 0.4624682078990063 0  0.3883007762741552 0.4881969647852906 0  0.3586916570726285 0.520365723809075 0  0.3982310446405015 0.5409560760482914 0  0.4347318812329952 0.5057649256965181 0  0.4329774712290833 0.5675062901706686 0  0.4040140948685726 0.5898482676998291 0  0.3228787370278015 0.4880069626003457 0  0.3233040340253558 0.5363030731842869 0  0.291875653749798 0.5083769347371879 0  0.3463056717304197 0.5621238255279812 0  0.2930867227277923 0.5588960495763211 0  0.2613233185135883 0.5260120001548398 0  0.4309495959517784 0.6147937955464814 0  0.4645348497411974 0.5974779250904164 0  0.4707793795508114 0.544373059500748 0  0.483403349902092 0.4841982672018125 0  0.5498048202863581 0.4515800769443376 0  0.4708946235023797 0.4099376510422479 0  0.5379541304591363 0.3895267290607345 0  0.6221444736535742 0.4910677084248155 0  0.6055622903141298 0.5657854865246276 0  0.6155296708572697 0.4265324574350382 0  0.4581984372453247 0.6425041260776223 0  0.4941386423071597 0.6256989171253224 0  0.5244345628294828 0.6509254283423259 0  0.4068058138891341 0.375082574279431 0  0.3211494090519684 0.4386421463427863 0  0.5314546530977866 0.60413139219472 0  0.5600355888697548 0.6316262121014994 0  0.5570979997558976 0.6767693561872007 0  0.5700875559412466 0.5895694317000849 0  0.6003569503812863 0.6088816019539544 0  0.6424922567209563 0.5882636900919725 0  0.6496850486933932 0.5442601381256731 0  0.6268352087379629 0.6390053859715393 0  0.3218842255645061 0.5830353044875206 0  0.2629439252453535 0.4796018366290828 0  0.3171215594242728 0.3900958130561698 0  0.6731224215446243 0.6164963503529841 0  0.3851194235730682 0.6558764408218706 0  0.4634175992580249 0.3032124685354159 0  0.4652706608188728 0.3410199208670799 0  0.4954473891057777 0.3269230018111247 0  0.4016252184975356 0.3325878010360184 0  0.2894211605047615 0.4140417513111389 0  0.3234704738066716 0.62746888731761 0  0.2651958129411054 0.5848696507249992 0  0.6790527285617127 0.5666537501727535 0  0.7159833015922306 0.4738618106644497 0  0.680339616958953 0.4641387698615881 0  0.6693032616437058 0.4252053177446191 0  0.6972717930052518 0.4001202718027986 0  0.6569376130109136 0.3861929409580004 0  0.4941152280210749 0.2896319723729517 0  0.4397156319609266 0.3966417511833775 0  0.7155023773175115 0.5487052854869646 0  0.4136003163649047 0.4590150118823674 0  0.448162089041574 0.4424683590356672 0  0.4347011511465251 0.356447263930774 0  0.5032941015618123 0.5731215478876394 0  0.6900696253216119 0.3671040166893152 0  0.6240755642283474 0.3534330033146614 0  0.6249810154104875 0.3145947730705305 0  0.5889816197360452 0.3271543107703699 0  0.5884081411047932 0.3638199262876161 0  0.5586657994816474 0.
[...]
<PointData  Scalars="v"> 
<DataArray  type="Float64"  Name="v"  format="ascii">5.9622231277798253e-20  1.1752957513883597e-19  4.9156628650874060e-21  5.1074389510123845e-21  -1.0966314308680738e-21  -3.4778298894407758e-21  -5.0920479490424850e-22  -7.0088898678949228e-21  3.5551505108195494e-03  2.7884874153012631e-03  -6.3828705228567429e-20  6.1608465500193593e-19  7.1535366365417980e-19  -3.3020364133362388e-19  1.7953965869373939e-18  1.5252239190593806e-18  -1.1072870420293751e-18  3.9785578626866980e-19  -2.2618714486935930e-19  6.1800034355986163e-20  1.4993268765536742e-18  5.9934275501363898e-19  -6.1447249674909855e-19  9.0083997542946704e-19  -1.3689631695250196e-18  2.7132421795231176e-19  6.4075961447707909e-19  6.6022442474019659e-19  -2.6022901380646418e-19  3.8850987357732502e-19  3.5400080968003743e-19  2.2687621962227479e-19  -1.9868295748591540e-19  6.0104902829493958e-19  -1.4548249629833919e-19  -2.3962144715662720e-18  -2.1814139870659132e-18  1.0510492732206277e-18  1.1367796309197048e-18  1.1046611938715981e-18  -6.2152958716630187e-20  6.9455787264333746e-19  8.8988149339429945e-19  5.4277469979608100e-19  6.9174092149805148e-19  1.3572871959028650e-19  3.4859741275784722e-19  -1.4509275286634127e-19  4.5199722215910847e-20  -2.9441736948710013e-21  4.6775936192176271e-19  3.3821126050256059e-18  -4.3063039325666818e-18  -1.0848191360670395e-19  4.1346523966361928e-19  3.8578989911536533e-19  -8.0648983370344095e-18  -5.1710926827544086e-19  7.6486590392105377e-18  9.7990238633827456e-19  -1.2190424637713891e-18  6.0229417325472648e-20  6.1429380424608847e-19  -3.4168568492169160e-18  -1.3946553505644288e-19  -1.2371603524312120e-19  8.8982949952021476e-19  -1.6628320778480323e-20  2.0259319640671153e-18  2.4505516115094266e-19  -3.2356381387492613e-18  2.1283427960524392e-19  4.0433431855986398e-19  1.0816236351547545e-19  6.5281861696365593e-18  -6.3028458365493162e-18  -6.4172588075982663e-18  5.8111199889669229e-18  4.1517694136093959e-20  -4.9616872034412437e-18  -4.5691134756905696e-18  3.1656264181247989e-18  1.4891138485171370e-19  2.4364177710085358e-19  -8.2779716968054645e-19  -6.1961233910169302e-19  6.0536408816630477e-21  2.8712118991728324e-21  9.9502498094027255e-21  8.3565348369122298e-20  5.9326529930999764e-20  2.8414937727472308e-20  1.9929537083758009e-19  6.4678236481995420e-20  -4.9819283609040176e-20  -2.8133298212616366e-20  2.8351093079024434e-20  4.4376180185575468e-20  1.9581387382817923e-19  4.3949020117467265e-20  6.0769061377952882e-20  8.1239030805370411e-20  -1.3671865086305086e-19  -4.6234407884242690e-20  1.1179992346015984e-19  7.8834387192014931e-20  -1.4828088129827745e-21  -1.2821549149834880e-20  9.0059948724211197e-21  -1.9340645054726944e-21  8.6394021536202359e-21  4.5652373690961999e-20  5.6252834717313315e-20  1.8390149729471278e-20  -1.5964432185768058e-20  6.6494109570057153e-20  -8.6843871491124858e-20  -3.4616544744599422e-19  -2.7291704682583721e-19  9.3957613072638226e-20  1.9831476747841062e-19  7.9370361627035590e-20  4.1418974781735467e-20  8.5373395750335754e-20  7.5289846643350707e-20  8.3547370213219567e-20  8.1266288988410046e-20  4.3569216053258101e-20  2.5046040095316077e-20  6.3767111021370967e-22  -1.0143065577173954e-20  3.9313242813212794e-21  -7.3465120721387152e-22  2.6897818650865084e-21  -4.2876925097242314e-21  1.7391836499710287e-20  7.7332695977465497e-20  5.0820784447666803e-20  -6.2564204627347177e-20  -2.3684926991648563e-20  5.2727116131442972e-20  6.5733576930594273e-20  1.1378706627457841e-20  -4.4551668389440432e-20  1.0223265972479591e-20  8.5078131319180198e-20  -8.6150094065759305e-20  -1.9049878429824464e-20  8.2876031121972323e-20  6.0405970299923979e-20  -1.8242841723078681e-20  -2.0025669268232156e-20  -3.9646263683697083e-21  7.8671055753567338e-22  1.7214700495036323e-22  1.1193045865012045e-21  -3.0211806409343582e-21  2.7714379756856019e-21  2.7780176248787161e-20  3.5017388857445609e-20  1.7634002400046090e-20  3.0740580982374177e-20  4.7862006191960915e-20  3.1371766584581609e-20  1.2924618984918061e-20  1.3418513961557816e-20  -1.9050319829531991e-20  -5.6223761035839554e-20  3.1018173311073990e-20  1.5655563706423598e-20  -6.0889169861079951e-20  -3.1631103616711296e-20  1.6747332358976006e-20  4.0884444041305885e-20  3.3403741876707260e-20  1.6956825646544454e-21  5.1797497855478925e-21  5.8415953979845136e-21  2.7840306408702109e-03  2.7957127965738530e-03  2.8191930743624912e-03  2.8670502504309749e-03  2.9005366384862261e-03  2.9120266806592554e-03  2.8954341421124526e-03  2.8519595068753918e-03  2.7796113937085584e-03  2.6758526113665531e-03  2.5429285860948002e-03  2.3792060009382851e-03  2.2094643220143249e-03  2.0886874685725598e-03  2.0529745112762747e-03  2.0791051857120498e-03  2.1371588057423757e-03  2.2109880862089199e-03  2.2851994538538702e-03  2.3576886677662409e-03  2.4134015070667236e-03  2.4369423867844006e-03  2.4267560732855915e-03  2.3810601178225589e-03  2.2968351507932395e-03  2.1770660784530549e-03  2.0223534279281297e-03  1.8554437779574285e-03  1.7396168227680627e-03  1.8038496528477029e-03  1.9951445944372424e-03  2.2018861527425418e-03  2.3754427790879740e-03  2.5152453492592536e-03  2.6269755111708831e-03  2.7057671752247665e-03  2.7610647109334533e-03  2.7908596545137051e-03  2.8045963562062012e-03  2.8080361325874010e-03  2.8034043771492639e-03  2.7963848721946601e-03  2.9095514353410061e-03  2.7147829919593816e-03  2.7018080454264981e-03  2.4594141914095150e-03  2.3784885332061344e-03  3.0664003844825920e-03  2.6296956075717668e-03  3.0701604424270418e-03  2.6635677894455553e-03  3.0847052913323026e-03  3.1785164226308033e-03  2.3027282468810173e-03  3.1488522161993164e-03  3.1016270271534692e-03  3.1252780052129741e-03  2.3689396833454705e-03  2.2557384438008006e-03  2.0756548841567002e-03  2.7119925375899013e-03  2.9290066702154062e-03  2.8966270645259065e-03  3.0899577702776151e-03  3.1108636160519210e-03  3.0190612142634819e-03  3.2006862829694021e-03  3.1027046911821857e-03  3.2671347645241741e-03  3.3711599430638344e-03  3.3609601455229349e-03  3.2387057612204731e-03  2.9007424228882890e-03  2.9189623355400439e-03  2.7245085709625963e-03  3.0299309308174831e-03  2.7211815480974945e-03  2.5018512176855144e-03  3.2645425232666787e-03  3.3853102205064034e-03  3.4638491353325192e-03  3.4385613835643714e-03  3.4155597040307008e-03  3.1820262504897042e-03  3.1331362060647650e-03  3.4595583847197172e-03  3.4985619916971604e-03  3.2789811650567099e-03  3.2304405745097681e-03  3.3515981214349722e-03  3.2689932757770210e-03  2.9173757674165342e-03  2.8201613502510992e-03  3.4502882023446277e-03  3.3565777749037279e-03  3.1413967064690502e-03  3.4839885663035882e-03  3.4086368174263003e-03  3.3929288520832004e-03  3.4367546658164139e-03  3.2515960769950122e-03  2.8767507818061003e-03  2.5008767848287952e-03  2.6754741561637587e-03  3.2166223754212788e-03  2.9819117277921576e-03  2.5613900290286365e-03  2.8076311912641643e-03  2.7305615031860755e-03  2.6824829892704749e-03  2.5917014927304858e-03  2.7985669962459145e-03  2.5001065337264187e-03  3.3186647420596497e-03  3.1383788901644229e-03  3.2611614067518013e-03  3.1674547491585864e-03  2.9700266870416026e-03  3.0138695585284645e-03  2.4659037417036982e-03  3.0798940527110132e-03  3.1814179931886552e-03  3.2292680210797946e-03  3.2697542748420447e-03  2.8680489935396657e-03  3.4880442742140630e-03  2.8187662277787415e-03  2.8692093588899852e-03  2.6015408899770472e-03  2.7187029506362415e-03  2.9705099478298585e-03  2.8015284032628291e-03  3.0928172815952626e-03  2.5225861022242463e-03  3.1761155788477776e-03  3.3314087808521231e-03  3.4188120747088765e-03  2.6861107857153914e-03  2.9718950599658830e-03  3.1826108181716556e-03  3.0523088735215690e-03  3.0445912086124074e-03  3.0715859369618219e-03  3.3221371349912271e-03  3.3990304398318766e-03  3.0007705837690668e-03  3.0404878586613587e-03  3.5030549391949083e-03  2.2931971889938799e-03  2.3146625701979612e-03  3.2756539547848839e-03  3.0986412664887734e-03  2.6394800432375043e-03  3.3097121435262328e-03  3.5086086779343721e-03  3.0306646009750364e-03  3.5182252735879299e-03  3.2753478173672755e-03  2.2786726293507736e-03  2.3607569657578217e-03  2.8938971312092781e-03  3.1437890021713800e-03  2.4777308289162521e-03  3.0174925312070966e-03  3.0045970080006495e-03  3.1861240291115008e-03  3.1568664531314299e-03  2.6991743851509198e-03  2.3573409104526277e-03  2.6356455312123066e-03  2.7070728118091260e-03  2.3099462153806055e-03  2.2832262337411772e-03  2.3747365647027205e-03  2.6844865066326740e-03  2.7053029208010254e-03  2.7740946155156718e-03  2.0621616826589960e-03  2.0834788158022380e-03  7.1222153759312740e-05  6.7598424056545831e-05  7.5103224694629835e-05  2.0027248017365842e-03  5.7176734412187073e-05  1.2439036876562572e-04  9.5711857916556744e-05  1.0338639215946999e-04  7.2523765577169568e-05  1.5969451949831992e-04  5.9123505525201997e-05  5.2188205608021774e-05  1.9922821574142296e-04  1.9697313010691160e-03  1.1342153639958252e-04  9.1738554744808841e-05  2.7806755223285574e-03  2.0455215381593892e-03  2.6292505332003308e-04  1.4651815943513856e-04  2.6992220951497590e-03  1.4761400492496342e-04  1.2757517663746889e-04  7.1879997558707656e-05  9.7429726857966182e-05  4.3688828486515678e-05  2.9464390312000857e-05  5.9272320007793909e-05  3.8283006708315868e-05  1.0229451868473762e-04  7.4554928597891321e-05  4.6293086386764813e-05  1.3516184166653547e-05  1.9653727212788604e-03  1.9452802577907722e-03  1.8569981337495888e-03  1.7969776621020533e-03  1.8912246294816018e-03  1.6988772237602541e-03  1.7881922149339344e-03  1.7011110970667153e-03  1.5641500230840866e-03  1.6396462868528126e-03  1.3991362835151159e-03  1.4551736484729283e-03  1.6807300646090480e-03  1.4702739958372705e-03  1.7286563987652164e-03  1.4399627786548994e-03  1.6340793842902187e-03  1.2379205560180235e-03  1.3390258653098916e-03  1.4932567248015049e-03  1.3081998057567429e-03  1.2137045079873168e-03  1.7990457176751467e-03  1.6295769358664063e-03  1.1756676641576352e-03  1.0435318602187856e-03  1.9495750680090490e-03  1.7508189131603983e-03  1.4028018251307256e-03  1.4931646194269799e-03  1.8499518087576191e-03  1.5722378937662919e-03  1.9226589529409489e-03  1.6337035512811375e-03  1.9721970651170101e-03  1.6731103250132121e-03  1.9966393825057243e-03  1.6876677193157106e-03  1.9804492972277455e-03  1.6709487924482041e-03  1.9312744099496619e-03  1.6205211888956938e-03  1.8383445959726460e-03  1.5303650076952185e-03  1.7040498281239232e-03  1.3987973165823788e-03  1.5313893733597493e-03  1.2288366555523681e-03  1.3136632109480020e-03  1.6033093828539768e-03  1.3400475787861417e-03  1.6120679260827272e-03  1.3028806104233390e-03  1.3121349540560477e-03  1.5680596571592306e-03  1.0283211981784784e-03  1.2437666904049508e-03  1.4857304738308350e-03  9.3469009047189729e-04  1.3714813747966314e-03  1.3209786727575825e-03  1.8699940304196373e-03  1.8085984941770773e-03  1.7145657542229412e-03  1.3782398317192428e-03  1.6043938663589195e-03  1.2577011585057395e-03  1.4849165685331769e-03  1.8162616126169244e-03  1.6934297524683157e-03  1.3618329664047825e-03  1.5657050035135769e-03  1.8842118731812372e-03  1.7470200739719717e-03  1.4289807303633178e-03  1.6016968998567040e-03  1.2839005901088265e-03  1.4410073431852376e-03  1.7857292647811356e-03  1.5610625002449743e-03  1.2660547328971427e-03  1.3479788912313944e-03  1.6108175007038272e-03  1.3745262188770999e-03  1.1139418091229694e-03  1.6023543250632520e-03  1.3367358122356738e-03  1.5291583996186085e-03  1.2395580011412461e-03  1.3971364785654416e-03  2.0405973967548337e-03  1.0629439377037328e-03  8.5673595930312279e-04  1.8483233221334079e-03  1.0521341818943005e-03  1.1244895294936301e-03  1.0898606507514540e-03  1.2163245901039299e-03  7.5377461379692206e-04  2.0263205762474489e-03  1.0914868436638378e-03  9.5229618975550779e-04  7.5106249998016755e-04  1.0216717935283123e-03  8.9354899802821788e-04  2.1563288876663067e-03  6.5915833312047171e-04  2.0858321584356059e-03  2.1700243114603128e-03  7.8489671635347934e-04  2.1775149673355513e-03  2.3066735862166342e-03  5.0564368204842312e-04  1.7156964312031646e-03  2.2787087673903409e-03  5.3866636928098018e-04  5.4432447458102801e-04  1.7782956142922651e-03  1.5815798299796786e-03  1.6865452275176894e-03  1.4496695096339631e-03  1.5664750345440437e-03  1.3217031804964759e-03  1.4203767186556496e-03  1.2020716759840490e-03  1.1623209389832305e-03  1.2557245801475933e-03  1.5249664115407637e-03  1.3551327363707007e-03  1.6157775175875695e-03  1.4392774029918830e-03  1.6859510738164833e-03  1.4995064162419099e-03  1.2461786677665603e-03  1.2952360104318450e-03  1.5320670300724344e-03  1.3060218837345743e-03  1.5116226903098189e-03  1.2671633043243829e-03  1.4345813308271151e-03  1.0721766523510558e-03  1.1804928693860434e-03  1.2991668453232496e-03  1.5674164505064668e-03  1.3822158251423681e-03  1.0392779390124209e-03  1.7296321553695122e-03  1.0971169839877682e-03  1.1094403263911688e-03  1.1545900245429443e-03  1.4847094805961849e-03  1.2071789466459467e-03  1.5118385107198255e-03  1.2219233310806538e-03  1.8564320405949218e-03  8.9166923948527340e-04  1.4533942128209588e-03  1.2124022071430269e-03  1.6561217323150979e-03  1.7255611449224718e-03  1.5846182962824555e-03  5.0805421376419100e-04  2.0995733713999746e-03  5.1175397651473506e-04  5.7924522265252992e-04  1.9930457058165521e-03  8.9184123369197635e-04  1.0375099489177233e-03  2.3329370288293636e-03  2.3515760902931265e-03  2.2794479399594644e-03  2.3311594422414398e-03  2.1617992157296532e-03  1.6440395304977173e-03  1.6248159496756315e-03  2.2223420182918311e-03  1.7251933548708804e-03  1.9100407038324741e-03  1.5031449361716730e-03  7.4493159440242322e-04  6.1833259349989569e-04  2.1686438749539266e-03  7.6391754076952575e-04  4.7901584738507748e-04  6.3354483936866343e-04  3.8527528627511622e-04  5.0308356344496775e-04  1.7833598756371784e-03  7.3177913921254568e-04  5.5288620514007088e-04  7.6693051937726090e-04  3.6261926674682754e-04  5.4520581731050399e-04  7.4051754096449087e-04  2.6995586387196179e-03  2.6162757486838241e-03  2.5966985153830034e-03  2.6093046403158878e-03  2.4921749837907574e-03  6.5703716857162863e-04  5.3668291578600434e-04  2.4129890568373872e-03  2.2893374821275222e-03  2.5096360496423367e-03  9.2568284050617013e-04  9.1007024831870384e-04  7.7249025123559973e-04  4.0191286390810617e-04  2.4691529755357547e-03  2.3348343067314892e-03  2.6257103149262894e-04  8.1084205839047723e-04  4.9739761638933650e-04  6.6925550763104365e-04  2.4519121837901156e-03  2.5640540578291053e-03  5.4327517997141306e-04  7.8503438730729224e-04  1.4626587564656526e-03  1.4121614275097261e-03  4.1724516917379499e-04  5.5262414178364465e-04  7.5265520183221318e-05  3.9819214211277642e-05  5.8385042163364465e-05  9.7955377158162843e-04  7.6619745941095224e-04  8.2890488971015645e-04  5.6905829241267393e-04  6.2472244931310969e-04  7.0290007637109240e-04  2.2778839424976169e-03  1.2445299624397393e-03  2.0786686524262876e-03  2.0911194821214476e-03  1.9978769880030106e-03  2.5029165364621481e-03  3.3486855243044448e-04  3.0372183067853514e-04  2.1336956131279578e-03  3.1201375862291404e-04  5.2192427567152564e-04  2.3291776222473253e-03  2.4884027978634912e-03  2.1752942395213866e-03  2.1537766160610646e-03  2.3717448759050879e-03  1.0529783680657630e-03  7.6127427216685268e-04  8.1186026014786719e-04  4.5400105138761779e-04  4.9118878789459640e-04  8.8720408204120862e-04  6.0646214475437016e-04  4.9087155826140145e-04  6.5931133821430443e-04  3.3213726908771726e-04  2.6376391360824670e-04  8.6774457351020335e-04  5.4130104251734587e-04  2.8007790151453251e-04  4.8156830758137197e-04  3.0083063746238255e-04  2.1789184874411032e-04  2.5466365360814472e-03  2.5961868889545843e-03  1.5081280576120222e-03  1.7052154841607973e-03  8.7788567840826090e-04  5.1746551293628150e-04  6.1597787660936190e-04  5.9824410736522581e-04  1.4008521530306875e-03  1.6038938539110737e-03  1.7438235547246037e-03  1.8950482391384639e-03  1.9090692816071350e-03  2.0465093611874430e-03  2.0514144873036398e-03  2.1697302232139047e-03  2.1545409627791619e-03  2.0048586968802809e-03  2.1084157395879913e-03  1.9474303268552430e-03  2.0284439257692247e-03  2.1781899105441458e-03  2.0921572621411593e-03  1.9532655711666552e-03  2.5751705442660011e-03  2.6308930025961234e-03  2.5802083126029796e-03  2.3113909264563714e-04  2.3285513202355059e-04  6.1528335096269759e-04  1.7319033999890485e-03  1.0131776428399686e-03  6.2425354821701428e-04  3.5189774285579369e-04  1.8552566531644171e-03  1.9349020585408328e-03  2.5052700608177983e-03  4.6526369816806882e-04  6.4160133638739352e-04  3.6304041441976534e-04  5.4430712244710568e-04  8.3945078632535644e-04  7.0774527050112765e-04  4.0910129000372723e-04  5.6976833145247366e-04  8.7806101511021329e-04  7.2598906399037541e-04  1.8040709869378768e-03  2.0591785630264107e-03  2.0703696893878344e-03  2.2562204061600580e-03  2.2552395041290927e-03  2.4209037593490648e-03  2.2255986844294685e-03  2.3922594500496619e-03  2.4074982843407858e-03  2.5175998621886379e-03  1.9644095024502935e-03  2.1121390655907076e-03  2.0379983331681737e-03  2.0014859250376354e-03  3.7370689789097074e-04  5.5897583233198152e-04  1.8600578359206559e-03  2.2827692864758535e-03  2.4567269871158199e-03  2.3715793988552808e-03  2.5733167286849548e-03  2.4982516924967682e-03  2.5103837986501665e-03  2.5473492422913128e-03  2.6695764765268023e-03  2.6420948808469017e-03  2.2874725386241124e-03  2.2696554675071395e-03  2.0808644880037871e-03  1.4768316356457683e-04  1.6338193513924773e-04  1.9031020589674146e-03  1.1919493630143381e-03  1.7091961662765484e-03  2.5184112734033537e-03  1.6859405110230868e-03  2.6254927133110124e-03  1.8272253709090279e-03  2.1978410378807028e-03  2.1141529308109125e-03  2.7593696599127969e-03  1.9011950959981665e-03  2.2157389905384131e-03  2.6814220186816822e-03  1.0329152756900066e-04  3.7885509187092248e-04  3.7921797595470334e-04  6.5640962580573974e-04  6.7487299317326691e-04  1.9899482919534090e-03  2.5095899142953404e-03  1.1362829846077727e-04  3.6531133691776806e-05  2.8257069398824464e-04  2.8566696392807794e-04  6.1212979722285608e-04  6.1051011775474008e-04  3.0108546875604492e-04  3.8857075211044028e-05  9.8909674737047848e-05  8.8755609354709949e-04  6.7008728884061580e-05  2.7831280841150062e-04  3.2726191734007225e-04  5.7977135107320098e-04  2.7053178784498632e-03  1.7693743979486711e-04  3.7828809013613993e-04  2.9423451738611295e-04  5.1987159413694915e-04  6.4204169892150855e-04  3.8337181444724454e-04  5.9631220711496699e-04  4.1748126173353321e-04  2.0991704778110088e-04  7.7080586698533764e-04  4.4723433857115231e-04  5.0365640077956958e-04  7.9223530612231193e-04  2.1812636333706724e-04  5.1357278167571917e-04  1.5474558149557437e-04  3.4871582476423373e-04  2.5985219101542736e-04  4.7613623171513389e-04  3.3204683945855970e-04  5.3379844266442154e-04  3.4296622315500792e-04  6.1691761530045179e-04  5.4874236034430286e-04  8.2792047419243521e-04  4.4734844476438193e-04  7.2686012164503006e-04  2.0137425492809174e-03  1.7635047090327945e-04  2.7853901914498087e-03  1.8944494590259879e-03  1.5384697189661505e-03  2.6566459743392989e-03  2.0472465518090069e-03  2.3698044681347572e-03  5.7288227976627679e-05  7.7619041780320540e-05  2.3547906843692790e-03  1.7290040230179078e-03  2.5364515259024925e-03  1.6258350304037140e-04  1.2919625737540209e-04  2.3258761660624326e-03  5.6653018426177706e-05  1.8763885340935055e-04  1.0522254645511673e-04  1.0932402264298589e-04  2.2523398020609228e-03  7.6472326021440851e-05  6.0925910348081616e-05  6.5436230464531521e-05  2.3354964391763679e-03  9.3521143169742461e-05  7.1185715395808921e-05  9.8303338541734099e-05  2.6778128195951702e-04  2.4354191792543139e-03  1.7905470399659348e-03  1.0175375339635825e-03  1.1908775212547088e-03  1.0307604234