<?xml version="1.0"?>
<VTKFile type="UnstructuredGrid"  version="0.1"  >
<UnstructuredGrid>
<Piece  NumberOfPoints="1277" NumberOfCells="2456">
<Points>
<DataArray  type="Float64"  NumberOfComponents="3"  format="ascii">0 0 0  0 1 0  1 1 0  1 0 0  1.1 -0.1 0  -0.1 -0.1 0  1.1 1.1 0  -0.1 1.1 0  0.5068869806370357 0.5050360908914335 0  0.6386530515051232 0.7191959613194553 0  0 0.9499999999997918 0  0 0.8999999999995836 0  0 0.8499999999996529 0  0 0.7999999999999998 0  0 0.7500000000003466 0  0 0.7000000000006934 0  0 0.6500000000010401 0  0 0.6000000000013869 0  0 0.5500000000017335 0  0 0.5000000000020587 0  0 0.4500000000018723 0  0 0.4000000000016644 0  0 0.3500000000014564 0  0 0.3000000000012483 0  0 0.2500000000010403 0  0 0.2000000000008322 0  0 0.1500000000006241 0  0 0.100000000000416 0  0 0.05000000000020799 0  0.04999999999989965 0 0  0.09999999999981467 0 0  0.1499999999997036 0 0  0.1999999999995579 0 0  0.2499999999994121 0 0  0.2999999999992664 0 0  0.3499999999991206 0 0  0.3999999999989749 0 0  0.4499999999988292 0 0  0.4999999999986943 0 0  0.5499999999988151 0 0  0.5999999999989468 0 0  0.6499999999990784 0 0  0.69999999999921 0 0  0.7499999999993417 0 0  0.7999999999994734 0 0  0.8499999999996051 0 0  0.8999999999997368 0 0  0.9499999999998684 0 0  1 0.04999999999989965 0  1 0.09999999999981467 0  1 0.1499999999997036 0  1 0.1999999999995579 0  1 0.2499999999994121 0  1 0.2999999999992664 0  1 0.3499999999991206 0  1 0.3999999999989749 0  1 0.4499999999988292 0  1 0.4999999999986943 0  1 0.5499999999988151 0  1 0.5999999999989468 0  1 0.6499999999990784 0  1 0.69999999999921 0  1 0.7499999999993417 0  1 0.7999999999994734 0  1 0.8499999999996051 0  1 0.8999999999997368 0  1 0.9499999999998684 0  0.9499999999997918 1 0  0.8999999999995836 1 0  0.8499999999996529 1 0  0.7999999999999998 1 0  0.7500000000003466 1 0  0.7000000000006934 1 0  0.6500000000010401 1 0  0.6000000000013869 1 0  0.5500000000017335 1 0  0.5000000000020587 1 0  0.4500000000018723 1 0  0.4000000000016644 1 0  0.3500000000014564 1 0  0.3000000000012483 1 0  0.2500000000010403 1 0  0.2000000000008322 1 0  0.1500000000006241 1 0  0.100000000000416 1 0  0.05000000000020799 1 0  -0.1 1.05000000000004 0  -0.1 1.000000000000079 0  -0.1 0.9500000000001624 0  -0.1 0.9000000000003032 0  -0.1 0.850000000000444 0  -0.1 0.8000000000005848 0  -0.1 0.7500000000007256 0  -0.1 0.7000000000008665 0  -0.1 0.6500000000010508 0  -0.1 0.6000000000012352 0  -0.1 0.5500000000014196 0  -0.1 0.500000000001539 0  -0.1 0.4500000000014195 0  -0.1 0.4000000000013 0  -0.1 0.3500000000011588 0  -0.1 0.3000000000010178 0  -0.1 0.2500000000008986 0  -0.1 0.2000000000007579 0  -0.1 0.1500000000006174 0  -0.1 0.1000000000005272 0  -0.1 0.05000000000040083 0  -0.1 2.671196597248127e-13 0  -0.1 -0.0499999999998666 0  -0.0500000000000906 -0.1 0  -1.730560139634463e-13 -0.1 0  0.04999999999975802 -0.1 0  0.09999999999961506 -0.1 0  0.1499999999994613 -0.1 0  0.199999999999302 -0.1 0  0.2499999999991446 -0.1 0  0.2999999999990088 -0.1 0  0.3499999999988296 -0.1 0  0.3999999999986936 -0.1 0  0.4499999999985143 -0.1 0  0.4999999999984002 -0.1 0  0.5499999999985247 -0.1 0  0.5999999999986493 -0.1 0  0.6499999999987955 -0.1 0  0.6999999999989417 -0.1 0  0.7499999999990659 -0.1 0  0.7999999999992116 -0.1 0  0.8499999999993573 -0.1 0  0.8999999999994526 -0.1 0  0.949999999999584 -0.1 0  0.9999999999997226 -0.1 0  1.049999999999861 -0.1 0  1.1 -0.0500000000000906 0  1.1 -1.730560139634463e-13 0  1.1 0.04999999999975802 0  1.1 0.09999999999961506 0  1.1 0.1499999999994613 0  1.1 0.199999999999302 0  1.1 0.2499999999991446 0  1.1 0.2999999999990088 0  1.1 0.3499999999988296 0  1.1 0.3999999999986936 0  1.1 0.4499999999985143 0  1.1 0.4999999999984002 0  1.1 0.5499999999985247 0  1.1 0.5999999999986493 0  1.1 0.6499999999987955 0  1.1 0.6999999999989417 0  1.1 0.7499999999990659 0  1.1 0.7999999999992116 0  1.1 0.8499999999993573 0  1.1 0.8999999999994526 0  1.1 0.949999999999584 0  1.1 0.9999999999997226 0  1.1 1.049999999999861 0  1.05000000000004 1.1 0  1.000000000000079 1.1 0  0.9500000000001624 1.1 0  0.9000000000003032 1.1 0  0.850000000000444 1.1 0  0.8000000000005848 1.1 0  0.7500000000007256 1.1 0  0.7000000000008665 1.1 0  0.6500000000010508 1.1 0  0.6000000000012352 1.1 0  0.5500000000014196 1.1 0  0.500000000001539 1.1 0  0.4500000000014195 1.1 0  0.4000000000013 1.1 0  0.3500000000011588 1.1 0  0.3000000000010178 1.1 0  0.2500000000008986 1.1 0  0.2000000000007579 1.1 0  0.1500000000006174 1.1 0  0.1000000000005272 1.1 0  0.05000000000040083 1.1 0  2.671196597248127e-13 1.1 0  -0.0499999999998666 1.1 0  0.6645564325532757 0.7128361531513246 0  0.6887991014285322 0.7044468013305896 0  0.7110448915988908 0.6933185488611102 0  0.7305006569585804 0.6791168227282679 0  0.7476591271775128 0.6625703385543681 0  0.7622053395555402 0.6433198531172036 0  0.7744350319398199 0.6220341569512844 0  0.7839954706766739 0.5989352402144608 0  0.7912758782309205 0.5745815382640324 0  0.7964902746957978 0.5493520764350839 0  0.7995098138286028 0.5239145696226403 0  0.8005833126279642 0.4982869677254438 0  0.7997517786569457 0.4727694830522332 0  0.7967106966238052 0.4475130483813828 0  0.791413670112901 0.4232236180014886 0  0.7844829311213649 0.3998960318429335 0  0.7751000927418114 0.3780754624979637 0  0.7634152614518204 0.3581256392400393 0  0.7496157950259631 0.3402097040485205 0  0.7335408263906931 0.3246313414647223 0  0.7152674432380031 0.3103321022914168 0  0.6934866118400549 0.2989888029629937 0  0.6688789119233854 0.2899197923035737 0  0.6421822589940521 0.2837489628245162 0  0.6138166830457874 0.2798516465555463 0  0.584609594456853 0.2775763334390127 0  0.5539389601497918 0.2763106328661769 0  0.5231222956405092 0.2759292460337727 0  0.4925035142212959 0.2758412320776069 0  0.4617745515132015 0.2758082209564209 0  0.4313286882154049 0.2758310828633664 0  0.4011903646302598 0.2768514344099546 0  0.3733851878685747 0.2793451078179219 0  0.3478851519075918 0.28395352517296 0  0.3241039536646462 0.2903116906177675 0  0.3036687431229935 0.2985774353582152 0  0.285424775169386 0.3086093046817914 0  0.2690995310229868 0.3203895844435363 0  0.2546101579603371 0.3340986291393164 0  0.2418293917791423 0.3499412220407656 0  0.2307392974559062 0.3677628571759577 0  0.2206964416929245 0.3885715476361717 0  0.2119713556682836 0.4121725002598997 0  0.2054045277943094 0.4383921455390793 0  0.2013528622772218 0.4661498064683469 0  0.1994031007993183 0.4940402870853013 0  0.1994572391515239 0.5228018067010254 0  0.2028178122249712 0.5508145297666425 0  0.2084849584342705 0.5782427275366157 0  0.2172508255595509 0.6043766114474499 0  0.2285893687416076 0.6268978205780308 0  0.2412432277132695 0.6464087163950079 0  0.2548631955123167 0.6627424171774602 0  0.2695513896452942 0.676739709455654 0  0.2857759617344715 0.6888526076791603 0  0.3040518951379032 0.699487321494065 0  0.3247520227116256 0.7083825540239189 0  0.3478048602836842 0.7151641052013682 0  0.3730900492120918 0.7199347297108838 0  0.4010268201782844 0.7223038104801176 0  0.4300017557294328 0.72410361106439 0  0.4600497106244193 0.7248647529399702 0  0.4905020958954948 0.7251671792767846 0  0.5211555852440538 0.7254996390233946 0  0.5517418523694863 0.7259133963892475 0  0.5824063693784624 0.7260208063138741 0  0.6114769328578371 0.723583128698893 0  0.2632643576550804 0.6329666367097702 0  0.2448625779479473 0.3980387598641816 0  0.7478098510716668 0.624150173357071 0  0.7755607599330818 0.534454457926639 0  0.6425493663378899 0.6981557609039025 0  0.6209824562108448 0.2987466179105209 0  0.7228396059505944 0.3462198565848391 0  0.5129962204568792 0.2926346703230697 0  0.2827130705183192 0.3484464955401612 0  0.330689557524857 0.3140005309137031 0  0.4309949517140726 0.3000515988594283 0  0.3104814251477486 0.6733794472658505 0  0.3720500201209101 0.6966438703584135 0  0.451653252260831 0.7040412178317808 0  0.5373302701982704 0.7073967656440514 0  0.7645939859152168 0.4191262857948443 0  0.2216239090957293 0.5547001037223832 0  0.221226717731294 0.4646027461142461 0  0.7069788299577067 0.6701106414811498 0  0.3754939440607734 0.3023088474538183 0  0.7738409022779267 0.4653542575630892 0  0.5929825162400748 0.7059647620292818 0  0.7655800827616658 0.5788436213720809 0  0.7469693867432157 0.3795577728691599 0  0.6886751536317514 0.3192403891700228 0  0.5722207091642521 0.2919230975497056 0  0.2381716653600966 0.5989794765259046 0  0.214242993164591 0.5075089491142442 0  0.4807389073032802 0.7055133032363463 0  0.4736591218723043 0.6840085101719362 0  0.444300350837348 0.6821233161371685 0  0.4664843266470031 0.6613957561564091 0  0.4351739985368143 0.6590078744401109 0  0.4534276291759424 0.6406651296800977 0  0.4804455261281935 0.6357583304363652 0  0.4268144741696527 0.6340725572443876 0  0.4508468347031079 0.6078186819616905 0  0.4088695336957245 0.6052617654559704 0  0.5009066388220974 0.6009642353918171 0  0.5422992076273407 0.6296807288369201 0  0.5492545815018502 0.5828280771692986 0  0.5849155552494392 0.6166884973209366 0  0.5962081007089572 0.5698283152359063 0  0.630118844178571 0.6031501427848901 0  0.642635700777061 0.555931663304893 0  0.6777646458200275 0.5845286407680388 0  0.6905788954714774 0.5478353275419512 0  0.6560381976114072 0.5203984272575199 0  0.6971960382116775 0.5171330641185206 0  0.6756301740479798 0.4868149818029098 0  0.6270402215202747 0.4950359852079376 0  0.6412203580082539 0.4592952771214268 0  0.6889113974905006 0.4468226008601825 0  0.6599136452338676 0.4202490039769589 0  0.6109550193490629 0.4308494215433486 0  0.6262244420876024 0.3970394110240052 0  0.5805825301350083 0.4030188923092802 0  0.5996631805325517 0.3685318633549481 0  0.5485516184165065 0.3695967432521219 0  0.5348721079220211 0.4061253319784225 0  0.5006596258224085 0.3701212930292183 0  0.4872676085737299 0.4095861790088892 0  0.4518280883703403 0.3716720196960371 0  0.4397539878919936 0.4112909485870743 0  0.66320
[...]
<PointData  Scalars="v"> 
<DataArray  type="Float64"  Name="v"  format="ascii">5.9699824497735761e-20  1.2769056147069472e-19  6.0356921501479582e-20  2.6693493055601487e-21  -1.0200980139501075e-21  -3.5122654805420044e-21  -3.5733604112186085e-22  -7.5626941869477443e-21  6.7071057957171748e-06  7.4500178250572446e-06  -7.2868834666824807e-20  6.0220512284675010e-19  7.3284633088541989e-19  -3.7099233480469046e-19  1.8520790754867516e-18  1.5719810830119483e-18  -8.7081210119035737e-19  4.1957809575589462e-19  -1.5619100479736325e-19  1.0048834709315656e-19  1.4865132068906890e-18  5.4973542403738654e-19  -4.9925066802916788e-19  9.1553343550922959e-19  -1.3484099462588705e-18  2.7376199148193359e-19  6.3377776832518185e-19  6.5281798644409266e-19  -2.6939479750777276e-19  3.9778663300599188e-19  3.8713368133900140e-19  2.3969138981468255e-19  -2.0158053318821942e-19  6.0901551111524326e-19  -1.6151969051747206e-19  -2.3758250518276051e-18  -2.2618057871080652e-18  1.0697537298060505e-18  1.2621450666478174e-18  1.1046831537988381e-18  -6.6093940942152842e-20  7.3826170337063339e-19  8.8449947671313543e-19  5.7515433320484535e-19  7.0338673612034016e-19  1.5484754142664153e-19  3.6763595460781634e-19  -1.6180104145131188e-19  1.6539303388429452e-20  -1.4371916323470264e-19  4.5967728846680252e-19  3.4396177364126979e-18  -4.2842995475834194e-18  -4.3552303179815494e-20  1.1452268482586507e-18  3.6933327800947930e-19  -6.9864739599961711e-18  5.8154505898152148e-19  8.7046788143685958e-18  1.0635084555260001e-18  -2.1371959224213387e-18  -6.6110291161352920e-19  6.5318890253789743e-19  -3.4216005269273214e-18  -1.3588745379259850e-19  -1.0214557140840674e-19  8.9027669360914965e-19  -1.0153064529948761e-20  1.7654077146831090e-18  2.9229231534739938e-19  -3.1150927044185197e-18  2.1339432283597441e-19  3.9735244209610418e-19  3.7695115525644584e-20  6.5265222773206777e-18  -5.5048801319543441e-18  -6.3649525912014262e-18  5.0166100674529311e-18  -6.0849429637278762e-19  -5.6056054584219998e-18  -5.1952578383129974e-18  3.1630329093968261e-18  -2.4860117396876940e-19  2.5476627689843027e-19  -8.0705071096592586e-19  -6.7619783424357855e-19  6.3737575208105383e-21  3.9280150466738339e-21  8.3900046037342331e-21  8.3729111820082407e-20  5.8667626668930951e-20  2.6952730369848184e-20  2.0172377881847644e-19  7.9460901834046146e-20  -2.6103842431478675e-20  -2.0384751752160995e-20  3.4629051492040238e-20  5.1304499573391073e-20  1.9219002966652592e-19  4.1159205351270976e-20  6.8589187998654134e-20  8.8496559767856588e-20  -1.3582696839449390e-19  -4.5710091813383506e-20  1.1138687959853962e-19  7.6574312199388361e-20  -1.7353949092971236e-21  -1.3249664462566496e-20  9.1909606619749993e-21  -1.9663962966355549e-21  8.5005187643139700e-21  4.7505258783152830e-20  6.0135294192262586e-20  2.0488922098198607e-20  -1.5622740638059423e-20  6.5591968920303180e-20  -8.4966297264433571e-20  -3.4588690166003556e-19  -2.8159180490634135e-19  9.7184439763972650e-20  2.1233071640316738e-19  8.1764546807734892e-20  4.1087197699399696e-20  8.9878234723053177e-20  7.6223303386421968e-20  8.4140834142560733e-20  8.3869302592769582e-20  4.6036026938802275e-20  2.7140081699474257e-20  -7.0542677437024335e-22  -1.1104912110389409e-20  4.1933584860437914e-21  -1.0330663135269188e-21  2.9580449656405518e-21  -3.4717515593751598e-21  1.5395433116882748e-20  7.7941686361385139e-20  5.9886009376154465e-20  -5.8317979398390733e-20  -1.5044156720638219e-20  5.6326722497782811e-20  6.7957042669917754e-20  3.0329676620117345e-20  -2.6486105090125370e-20  2.0703873529117365e-20  8.8790992602679666e-20  -8.9696631711475594e-20  -1.3245172663432653e-20  9.0883556927745559e-20  6.1522645384472664e-20  -1.4664329700008067e-20  -1.8528207891868049e-20  -3.2254545256759869e-21  1.0359201604043449e-22  1.6428764844812358e-22  1.0482648259448548e-21  -3.6526188312819416e-21  4.9200041075659798e-21  3.3923089854060527e-20  4.5085885805690974e-20  3.0612725797530776e-20  3.4105882656731068e-20  4.5730660038925297e-20  2.7378294720816106e-20  7.8542290385228480e-21  1.2765230624344930e-20  -1.5429319528817894e-20  -5.1297462042751520e-20  4.3120956442287508e-20  2.6714746419429777e-20  -5.9626702939140121e-20  -3.2021252632825948e-20  1.2916471102044500e-20  4.2005714741261422e-20  3.5731407259652700e-20  1.5102764860096723e-21  5.6499548165598271e-21  6.3185733328039051e-21  1.0542503981475715e-05  1.4579009960590248e-05  1.9290510393615189e-05  2.4157180057707235e-05  2.6916829252704201e-05  2.9330738928252921e-05  3.0956653884945735e-05  3.2059608518472949e-05  3.2021384234717161e-05  3.2537531818701860e-05  3.3263133133552234e-05  3.4282472158590852e-05  3.5024097077440801e-05  3.6488825278264720e-05  3.8690198472312150e-05  4.0618240791507545e-05  4.2257279239292400e-05  4.3517378551344050e-05  4.4321161175013099e-05  4.4421194051745010e-05  4.1194339516730592e-05  3.8605474869005419e-05  3.4953773170885384e-05  3.1823217236954645e-05  2.9712006436136268e-05  2.7122027520969884e-05  2.5240323148796627e-05  2.3890891569480383e-05  2.2684227579353303e-05  2.0898716534310783e-05  2.0110324344990423e-05  2.0673497207495943e-05  2.0879189607470385e-05  2.1772102814342334e-05  2.3962884116124649e-05  2.6017783271794706e-05  2.8298925746803762e-05  3.0085024499790811e-05  3.1713699379166999e-05  3.2518712046986859e-05  3.2308416781306329e-05  3.1668597495340621e-05  3.0443128746549263e-05  2.9169838010287995e-05  2.8705128447928296e-05  2.8477187960429731e-05  2.9008419406557482e-05  3.0427253580705400e-05  3.1902057903819659e-05  3.4572053052853391e-05  3.7231578524693012e-05  3.8313146659489400e-05  3.8608351883507792e-05  3.7589923219457502e-05  3.5034206667097529e-05  3.1256601461778657e-05  2.6477873754839082e-05  2.2316315671638204e-05  1.7879672360708351e-05  1.4019989176685704e-05  1.0063427997784757e-05  7.0056733031932395e-06  4.7934949547401146e-06  3.2975429016458405e-06  2.7717282402483763e-06  2.5036770818302177e-06  5.0198039059983188e-06  3.3286500434382470e-05  2.9072494311415929e-05  2.6341593703522215e-05  3.1210006505831221e-05  1.7962497978138434e-06  2.6228751553728346e-05  3.9820418027840779e-05  1.5636206496621869e-05  2.7430613244876277e-05  2.3475168191284174e-05  1.8889355722018300e-05  2.8332043404221182e-05  1.7564053108019762e-05  4.8418422441405231e-06  -3.7385273746166521e-06  3.8597307207591536e-05  2.8439772207824106e-05  2.5802640647956076e-05  1.8567786113099024e-05  2.0448998555305217e-05  3.6118052127990145e-05  -5.2483794511157933e-06  3.0096130047528208e-05  4.0130084961267876e-05  3.7320951517081396e-05  1.6419935286184926e-05  3.2965457404167392e-05  2.6650417820878689e-05  1.3617767577146299e-06  4.5104851619078754e-06  7.6241269878246469e-06  5.0006931147630213e-06  8.4446466613632418e-06  6.1497863426980252e-06  2.8631324812971346e-06  9.4419654715117148e-06  5.5549265197029003e-06  1.1608075815915582e-05  2.1909499988307165e-06  3.0674713551181505e-07  3.8228742101451252e-06  3.6368887161511890e-06  8.4878077856107557e-06  9.3860546989051356e-06  1.5510133930562118e-05  1.9365530948509932e-05  2.3610934111733076e-05  2.0585460238186006e-05  2.6367526065577917e-05  2.5684774675488668e-05  1.8428619438446107e-05  2.2647821910389403e-05  3.0335013577360051e-05  2.8797503084140368e-05  2.0878597649373254e-05  2.4908691553928430e-05  1.9028698200187473e-05  2.2568191491597608e-05  1.7940178394440321e-05  1.4832644906905855e-05  1.4408164610949910e-05  1.1872537538875769e-05  1.3327792405816556e-05  1.2406756743930460e-05  1.4721057309842305e-05  1.5509191904082137e-05  1.5255506151837071e-05  2.2372108255377321e-05  1.4912124793760960e-05  1.7127197680901790e-05  1.3797447021950941e-05  1.8350853230510525e-05  1.5403162672830506e-05  2.0276884159014100e-05  2.3043432048921819e-05  2.4163992253288959e-05  2.2641211550914460e-05  2.4041041270817529e-05  2.3269934573448731e-05  2.5928050757538251e-05  1.2202286101076579e-05  2.1430278618713069e-05  2.2806764757794609e-05  1.1707332455256780e-05  2.9199125020075916e-05  2.7036272668601561e-05  2.8244064180041353e-05  2.8871805094903002e-05  1.8241353015908755e-05  3.3681280149669574e-05  2.1512136006331453e-06  1.6769531655622245e-05  2.4690590650082652e-06  1.8763515017423324e-05  2.5146978588879753e-05  1.7109046726236241e-05  1.8991007165678666e-05  2.2976611333967622e-05  2.2566797191918937e-05  1.1248178655006490e-05  2.1910546218447350e-05  2.0626839211932296e-05  5.0882158266835677e-06  4.6883795878778968e-06  2.6425567130881660e-05  2.6360603602487330e-05  3.4267069175951265e-05  3.7278332076844489e-05  5.2447699338424787e-06  3.0753361109539733e-05  3.6859677615914396e-05  3.4214443947905938e-05  3.2639889602230846e-05  2.6446319504215152e-05  2.4713718008928438e-05  2.1899915998082643e-05  1.8204368218511723e-05  1.8289576093213173e-05  2.1943016535665086e-05  2.6087307706417417e-05  1.7628712544677458e-05  1.2805597249558661e-05  1.7576992810460361e-05  2.2707230596871721e-05  2.3245974177528114e-05  2.8025442517358088e-05  2.6796574805942267e-05  3.0603487808436689e-05  3.0177017630218214e-05  3.0937543302942083e-05  3.2044116914004187e-05  3.5158397411337174e-05  2.8451442264785649e-05  2.8245485998496416e-05  1.5358767545794308e-06  1.1300148174833439e-06  1.0050896618215485e-05  2.6489953693041440e-05  2.8451682852793410e-05  2.9620567487683867e-05  2.8456224945765560e-05  1.1983165097478762e-05  1.2585118646777445e-05  2.8179440243964773e-05  2.6626024765002822e-05  3.0569910818491014e-05  2.3169451880905508e-05  7.5081178165549849e-06  2.8276804980738298e-05  2.8202149874460046e-05  1.6372299811003957e-05  1.7611225801324491e-05  1.7084800038647941e-05  2.8873050204335707e-05  9.1781209426316310e-06  3.1376372923042191e-05  2.4982787538262951e-05  1.1211003330097755e-05  3.2308327366921165e-05  2.2005995628982671e-05  1.5948055872319738e-05  1.1804843677499970e-05  8.2095819383656265e-06  6.0133811908648279e-06  2.0721423188263780e-05  2.9438017016323763e-05  2.6403496363930919e-05  1.6842306870050996e-05  1.5598737588946709e-05  1.8916312668809239e-05  1.8013037203056050e-05  3.0670223118618304e-05  2.6180560274718584e-05  2.5384196819632064e-05  2.4890322667919853e-05  3.3504007668156112e-05  3.1858642341239442e-05  -5.8938191112334954e-06  3.4814449285092504e-05  1.3530439103458153e-05  3.5032861187743966e-05  9.1392604693927992e-06  3.9608318470470851e-05  3.3490479359737396e-05  3.4253807568664920e-05  -9.2521626981317735e-07  3.1613618826020676e-05  4.0254398016325848e-05  2.8520369743057523e-05  3.0441265548494149e-05  3.1985297950793635e-05  2.6650218803109807e-05  3.6059926990795859e-05  1.3382197169934039e-05  1.6915921763554478e-05  -2.6555216167196979e-06  3.8192532123524670e-05  2.4896862811841862e-06  1.9876297037839266e-05  3.1594635529073563e-05  1.4897672320277045e-05  8.7156358539072879e-06  8.3555949602348878e-06  3.8741837513681264e-05  1.8476051218608972e-05  2.1314258132846891e-05  2.1893876966124853e-06  3.1199617958382467e-05  2.9223484558156554e-05  9.9636239279280108e-06  3.6825798739175258e-05  2.3852572703334929e-05  3.2237847903925277e-05  4.5938234174859950e-06  1.9877974794138139e-05  2.1500119706430546e-05  2.8829877234344225e-05  2.7617008155335653e-05  3.3542201710441412e-05  9.9925763035090024e-06  2.2280833474565366e-05  1.5045567697115519e-05  1.3097749287452829e-05  3.2745471639204551e-05  7.6758977343294815e-06  1.9900593082789669e-05  3.0206298717919644e-05  3.4359903482221492e-05  2.8049090813906486e-05  1.7616526325511242e-06  3.0732666389054117e-05  1.9628648862056085e-05  2.5176279299749125e-05  2.8808334021067793e-05  8.8745253048271741e-06  3.6477640136255496e-05  2.8992221388673039e-05  3.7472657365858223e-05  2.0226424685430319e-05  1.9787628414871771e-05  2.1102763961934670e-05  1.9165874063759414e-05  3.2402965860041204e-05  2.1515142443835972e-05  3.5588414243959388e-06  1.8111550379567306e-05  2.9798871412917389e-05  2.0798354111153719e-05  3.3435047395832146e-05  2.9341534292400093e-05  1.6383993562201055e-05  2.3595310375612944e-05  2.2078796851868515e-05  3.9045924250628115e-05  3.7990097770337339e-05  2.0690032206530097e-06  1.4579845444692606e-06  2.5166752867310028e-05  1.6724781225044658e-05  2.8909039562884948e-05  1.7684097797107634e-05  1.8897838209864967e-05  1.8362724535374034e-05  1.6187806511727776e-05  1.4633207654583269e-05  2.9792925224704592e-05  1.4954455727682777e-05  2.8123148931536921e-05  1.4862567469950033e-06  3.4494242488610774e-06  1.6444235082938800e-05  1.6611805624007803e-06  6.1982237085888584e-06  2.0850680337249934e-05  1.5695056147029573e-06  1.2104028832908008e-05  1.7230784314270095e-05  2.3951718897256081e-05  8.9771813846895090e-06  3.4356483523278641e-05  2.2643037806655586e-05  2.7043625435772110e-05  2.8808557074820039e-05  3.4354677509006020e-05  4.0998206739165869e-05  2.1003787597821697e-05  2.7099799802902509e-05  2.4229159143875698e-05  2.4853020079457537e-05  1.2583923414632878e-05  3.1147393395230025e-05  1.3014277306382837e-05  4.1051626070176906e-05  3.5892073700216721e-05  2.1808588953097675e-05  3.6425690021805859e-05  4.2903206998945905e-06  4.7084957504499066e-06  7.7788956251666434e-06  6.0724645112069526e-06  3.0143905124383043e-05  6.8331083358708415e-06  6.9947503368267785e-06  3.1390896373056560e-05  2.7090610490941514e-05  3.6835582033872523e-05  8.6648520870711628e-06  3.2946797474259188e-05  6.8940061011513593e-06  2.3509681233639057e-05  1.0475850606453683e-05  7.4454680517243626e-06  3.3337885607313750e-05  2.8905101486691445e-05  5.8822846553679116e-06  4.8040039379336771e-06  3.4672436887922970e-05  8.6202875719358030e-06  4.8232506753323799e-06  7.2213560168674961e-06  8.0657061736085567e-06  6.9088843216821862e-06  6.7741131478127125e-06  4.9058293971868592e-06  1.2451313277905109e-05  2.8287839096315595e-05  1.1812215679086722e-05  5.9134440423092825e-06  5.0507902750853017e-06  2.9724583178133092e-05  1.4357231642732526e-05  1.1318061739055529e-05  6.4111979775468117e-06  5.6135285763333253e-06  1.0659395762327662e-05  4.4709946334781632e-06  7.4399777629501841e-06  1.1804090310387877e-05  5.6890162219443142e-06  5.5853612606071511e-06  2.7208629922976614e-06  3.9588759584912949e-06  2.8363926523027919e-05  2.7214686647346699e-05  2.7140089883021813e-05  2.5238464575610835e-05  2.5680710243092195e-05  2.4741080742367896e-05  2.1644404336350817e-05  2.6842350804063483e-05  2.3736810482589781e-05  2.5992984968112610e-05  3.0645329230857558e-05  3.3762359019731424e-05  3.5233425377929644e-05  3.7155599137761274e-05  3.5830282062296562e-05  3.7246996946630788e-05  3.4176801995268826e-05  3.5600645471663367e-05  3.6987532360946880e-05  3.4195461378951626e-05  3.4781988226885053e-05  3.7264508597496618e-05  3.4413717892687866e-05  3.6405344134836379e-05  3.1572394993853877e-05  3.2514394484701687e-05  3.3958940500306916e-05  2.8965093573480549e-05  2.6754862340909893e-05  2.9635498551113008e-05  3.4423915653404667e-05  2.9542051749839991e-05  3.4801631504474026e-05  2.9342051131037373e-05  3.2935293669867079e-05  3.0489791346490011e-05  3.3743852487872671e-05  2.9558822082231164e-05  2.3749128280619023e-05  2.9416026174482647e-05  2.3367760985929461e-05  3.8803768287916929e-05  3.7897971835707001e-05  2.2822846027779554e-05  2.8278264542338247e-05  2.2489213840030360e-05  2.7737356979862577e-05  2.2510749782209318e-05  2.7970544938003865e-05  2.2482174397056339e-05  2.7457993551216419e-05  2.2133247399174148e-05  2.6337211729841852e-05  2.2075858438167540e-05  2.5949278318110337e-05  2.1554568978951150e-05  2.4632383061252173e-05  2.0778920690748894e-05  2.3517973199515799e-05  2.0002447268704931e-05  2.2080857083990919e-05  1.8662907219666228e-05  2.0574669437489732e-05  2.2536511650448483e-05  2.0700124872279799e-05  1.8725600145509255e-05  1.8370984767729325e-05  1.9246700814722550e-05  1.6768205203572612e-05  1.6683792313923383e-05  1.6192447883855238e-05  1.4557673955350561e-05  1.4096947735679949e-05  1.3931623766531119e-05  1.5288280092550522e-05  1.3010108268962800e-05  1.2266431358583651e-05  1.1571744664706430e-05  1.8949326984765108e-05  1.2379678099908587e-05  9.6310720858380140e-06  9.6325688687704578e-06  8.3177125818969060e-06  8.6487106454084565e-06  7.5926364639835270e-06  6.6232635174959220e-06  6.4012011163947191e-06  7.4892971249690571e-06  7.5864478372476670e-06  8.1845131660366874e-06  8.9976669205464410e-06  8.0599257676683222e-06  1.0581184782628627e-05  1.0647819509421659e-05  1.3109478650922569e-05  1.2351531629379849e-05  1.5298531227511580e-05  1.6021799104335811e-05  1.8804123195115494e-05  1.7031996295747982e-05  2.0834927494732635e-05  2.2638991596760542e-05  2.4356530616694035e-05  2.1744893081770531e-05  2.4782042582243423e-05  2.7604809839698294e-05  2.7768971416513668e-05  2.4315128399040386e-05  2.6580059920908136e-05  2.9760024590779286e-05  2.2702062089978182e-05  2.7406711464929696e-05  3.0194462319123400e-05  2.6612800736025275e-05  2.9280451035843823e-05  3.2188203102508367e-05  2.2770980833291272e-05  2.0269421228101274e-05  1.8137287412458748e-05  2.5984369841422028e-05  2.4447479385196658e-05  2.8072024989596382e-05  2.5335342147604361e-05  3.1110173667073152e-05  2.9098456063349464e-05  2.5506415178748531e-05  1.5265496456714474e-05  3.2673878403158320e-05  2.7077724990812425e-05  1.9788880757044572e-05  9.2184060529981479e-06  1.3000251594613257e-05  9.1131863845012241e-06  1.0349288630701532e-05  1.5299536926694478e-05  2.6561044494383691e-05  2.8787100332657615e-05  1.5193220510838103e-05  3.2385874272171290e-05  7.5152513881817768e-06  9.7384106239778376e-06  3.8622071408899936e-05  9.6486615054653388e-06  1.5577947484947186e-05  5.3865002535186662e-06  5.9168555842276866e-06  7.4490983001432296e-06  3.1377478650998395e-05  2.7586555301239131e-05  3.0056841868137758e-05  2.5437231364627371e-05  2.7110375408435661e-05  2.9262044094010600e-05  2.7035853115972750e-05  2.4394636507894335e-05  2.5326545308077638e-05  2.1910501850139430e-05  2.2794439031621779e-05  2.4085553772602685e-05  2.2585991533497416e-05  2.0432348588742009e-05  2.0736521804019030e-05  2.1723002922755579e-05  2.1272980307710068e-05  1.9488665805576942e-05  2.0759952705969645e-05  2.1800847528951433e-05  2.1941383855423920e-05  2.0208444599224844e-05  2.1999129290000425e-05  1.9621218313735281e-05  2.1533133117165872e-05  2.3023765702314104e-05  2.3832442175384058e-05  2.1406930362451428e-05  2.3135889708999340e-05  2.5158448238808462e-05  2.3948599383906943e-05  2.6087491066442104e-05  2.4103084538314848e-05  2.1448208961263402e-05  2.6226229341749367e-05  2.3392992842033521e-05  2.5508847158193090e-05  2.7705839866790074e-05  2.0593440845571288e-05  2.2469989751120222e-05  1.7394936110321627e-05  1.6362438593414286e-05  2.1716557684530398e-05  2.4236292713996843e-05  2.7360324052029902e-05  2.6404705819335402e-05  2.8388339357766070e-05  2.3229451363468500e-05  2.5027151820719770e-05  2.2044585289822773e-05  2.2726523013800213e-05  2.3298058274582506e-05  2.8911134781977047e-05  3.0935890627197041e-05  1.3311490654320526e-05  1.3005954456079164e-05  2.7692584255301716e-05  6.8022426716299072e-06  2.1598935390074363e-05  3.2321167362925443e-05  3.0511578815837368e-05  2.9681641899077117e-05  6.3531402538698846e-06  2.1313863521919461e-05  3.0019652318397315e-05  2.9369433570552409e-05  3.0578250557856477e-05  1.7395109353139904e-05  2.8336008001098134e-05  4.9457983259987525e-06  2.4196299637581714e-05  2.5358157536370230e-05  2.3643466779207538e-05  2.7004266273465395e-05  2.5615465292647339e-05  3.1257467727130670e-05  1.1699142415231395e-05  1.5392115507044265e-05  2.1642619692186594e-05  2.1666505550816558e-05  1.0710233912785313e-05  1.4960502056370040e-05  1.7280416556859648e-05  1.4199722195367879e-05  5.1448972416456662e-06  1.7706850545945418e-05  1.8933573633013584e-05  1.4706340410483108e-05  1.6311818344375290e-05  1.1031845083499066e-05  2.2330937520458339e-05  2.7831110265260334e-05  2.8947293964366002e-05  2.82