<?xml version="1.0"?>
<VTKFile type="UnstructuredGrid"  version="0.1"  >
<UnstructuredGrid>
<Piece  NumberOfPoints="1078" NumberOfCells="2058">
<Points>
<DataArray  type="Float64"  NumberOfComponents="3"  format="ascii">0 0 0  0 1 0  1 1 0  1 0 0  1.1 -0.1 0  -0.1 -0.1 0  1.1 1.1 0  -0.1 1.1 0  0.496604271903018 0.5490936444168324 0  0 0.9499999999997918 0  0 0.8999999999995836 0  0 0.8499999999996529 0  0 0.7999999999999998 0  0 0.7500000000003466 0  0 0.7000000000006934 0  0 0.6500000000010401 0  0 0.6000000000013869 0  0 0.5500000000017335 0  0 0.5000000000020587 0  0 0.4500000000018723 0  0 0.4000000000016644 0  0 0.3500000000014564 0  0 0.3000000000012483 0  0 0.2500000000010403 0  0 0.2000000000008322 0  0 0.1500000000006241 0  0 0.100000000000416 0  0 0.05000000000020799 0  0.04999999999989965 0 0  0.09999999999981467 0 0  0.1499999999997036 0 0  0.1999999999995579 0 0  0.2499999999994121 0 0  0.2999999999992664 0 0  0.3499999999991206 0 0  0.3999999999989749 0 0  0.4499999999988292 0 0  0.4999999999986943 0 0  0.5499999999988151 0 0  0.5999999999989468 0 0  0.6499999999990784 0 0  0.69999999999921 0 0  0.7499999999993417 0 0  0.7999999999994734 0 0  0.8499999999996051 0 0  0.8999999999997368 0 0  0.9499999999998684 0 0  1 0.04999999999989965 0  1 0.09999999999981467 0  1 0.1499999999997036 0  1 0.1999999999995579 0  1 0.2499999999994121 0  1 0.2999999999992664 0  1 0.3499999999991206 0  1 0.3999999999989749 0  1 0.4499999999988292 0  1 0.4999999999986943 0  1 0.5499999999988151 0  1 0.5999999999989468 0  1 0.6499999999990784 0  1 0.69999999999921 0  1 0.7499999999993417 0  1 0.7999999999994734 0  1 0.8499999999996051 0  1 0.8999999999997368 0  1 0.9499999999998684 0  0.9499999999997918 1 0  0.8999999999995836 1 0  0.8499999999996529 1 0  0.7999999999999998 1 0  0.7500000000003466 1 0  0.7000000000006934 1 0  0.6500000000010401 1 0  0.6000000000013869 1 0  0.5500000000017335 1 0  0.5000000000020587 1 0  0.4500000000018723 1 0  0.4000000000016644 1 0  0.3500000000014564 1 0  0.3000000000012483 1 0  0.2500000000010403 1 0  0.2000000000008322 1 0  0.1500000000006241 1 0  0.100000000000416 1 0  0.05000000000020799 1 0  -0.1 1.05000000000004 0  -0.1 1.000000000000079 0  -0.1 0.9500000000001624 0  -0.1 0.9000000000003032 0  -0.1 0.850000000000444 0  -0.1 0.8000000000005848 0  -0.1 0.7500000000007256 0  -0.1 0.7000000000008665 0  -0.1 0.6500000000010508 0  -0.1 0.6000000000012352 0  -0.1 0.5500000000014196 0  -0.1 0.500000000001539 0  -0.1 0.4500000000014195 0  -0.1 0.4000000000013 0  -0.1 0.3500000000011588 0  -0.1 0.3000000000010178 0  -0.1 0.2500000000008986 0  -0.1 0.2000000000007579 0  -0.1 0.1500000000006174 0  -0.1 0.1000000000005272 0  -0.1 0.05000000000040083 0  -0.1 2.671196597248127e-13 0  -0.1 -0.0499999999998666 0  -0.0500000000000906 -0.1 0  -1.730560139634463e-13 -0.1 0  0.04999999999975802 -0.1 0  0.09999999999961506 -0.1 0  0.1499999999994613 -0.1 0  0.199999999999302 -0.1 0  0.2499999999991446 -0.1 0  0.2999999999990088 -0.1 0  0.3499999999988296 -0.1 0  0.3999999999986936 -0.1 0  0.4499999999985143 -0.1 0  0.4999999999984002 -0.1 0  0.5499999999985247 -0.1 0  0.5999999999986493 -0.1 0  0.6499999999987955 -0.1 0  0.6999999999989417 -0.1 0  0.7499999999990659 -0.1 0  0.7999999999992116 -0.1 0  0.8499999999993573 -0.1 0  0.8999999999994526 -0.1 0  0.949999999999584 -0.1 0  0.9999999999997226 -0.1 0  1.049999999999861 -0.1 0  1.1 -0.0500000000000906 0  1.1 -1.730560139634463e-13 0  1.1 0.04999999999975802 0  1.1 0.09999999999961506 0  1.1 0.1499999999994613 0  1.1 0.199999999999302 0  1.1 0.2499999999991446 0  1.1 0.2999999999990088 0  1.1 0.3499999999988296 0  1.1 0.3999999999986936 0  1.1 0.4499999999985143 0  1.1 0.4999999999984002 0  1.1 0.5499999999985247 0  1.1 0.5999999999986493 0  1.1 0.6499999999987955 0  1.1 0.6999999999989417 0  1.1 0.7499999999990659 0  1.1 0.7999999999992116 0  1.1 0.8499999999993573 0  1.1 0.8999999999994526 0  1.1 0.949999999999584 0  1.1 0.9999999999997226 0  1.1 1.049999999999861 0  1.05000000000004 1.1 0  1.000000000000079 1.1 0  0.9500000000001624 1.1 0  0.9000000000003032 1.1 0  0.850000000000444 1.1 0  0.8000000000005848 1.1 0  0.7500000000007256 1.1 0  0.7000000000008665 1.1 0  0.6500000000010508 1.1 0  0.6000000000012352 1.1 0  0.5500000000014196 1.1 0  0.500000000001539 1.1 0  0.4500000000014195 1.1 0  0.4000000000013 1.1 0  0.3500000000011588 1.1 0  0.3000000000010178 1.1 0  0.2500000000008986 1.1 0  0.2000000000007579 1.1 0  0.1500000000006174 1.1 0  0.1000000000005272 1.1 0  0.05000000000040083 1.1 0  2.671196597248127e-13 1.1 0  -0.0499999999998666 1.1 0  0.5247398518212827 0.5452810719319473 0  0.5487909779801968 0.5293384833741387 0  0.5562144426090481 0.5013013767761301 0  0.5570800516315578 0.4728638088385974 0  0.5561671121064573 0.4445830267661907 0  0.5532395909697974 0.4164417186399435 0  0.5478883659983094 0.3884764325717797 0  0.5392734073842389 0.3610231430948651 0  0.5253319976736388 0.3353924409667268 0  0.5023575761012445 0.3175524781307815 0  0.4743147283039143 0.317491446238437 0  0.4479280635367874 0.3252936046350519 0  0.4227671901860687 0.3354464080111031 0  0.3983095480753505 0.3468820280204732 0  0.3744115014747341 0.3592045634420092 0  0.3509831452337397 0.3722224360942417 0  0.3279676547394369 0.3858394258247122 0  0.3054050854788931 0.4000656280738162 0  0.2833161940060915 0.4149613903032319 0  0.261863016795315 0.4306950852164961 0  0.241476798332497 0.4477391786759795 0  0.2239512502639066 0.4678164207741204 0  0.2288291910046341 0.4919582583361656 0  0.253440000546663 0.505882588531862 0  0.2795291713219704 0.5156789448491553 0  0.3060147184789683 0.5235528491312441 0  0.3327467680738171 0.5301471747205376 0  0.3596362347768783 0.5357398188078428 0  0.3866632950467737 0.5404180185960371 0  0.4138499721574851 0.5442070032845744 0  0.4411890463917837 0.5470755612028658 0  0.4687434803849491 0.5488515124204186 0  0.5305711009038679 0.432467612755436 0  0.3977955540271173 0.3764483905105432 0  0.4332107910080368 0.5194478985544476 0  0.3293583700075996 0.4137719851834452 0  0.3746648417605848 0.5138081883270537 0  0.4468081873940574 0.3554250907908215 0  0.4841230687787434 0.5232525278674803 0  0.3225290539629714 0.5029646916253034 0  0.519849625857717 0.3796794269349545 0  0.2869582292362071 0.443302841751035 0  0.5311384137300288 0.4864989394827936 0  0.494672867770659 0.3406013449966371 0  0.2722275144377358 0.4872961258576572 0  0.2478085286414237 0.4764556344422781 0  0.5283780268257366 0.5146757588752344 0  0.5023412233941039 0.5005679938989083 0  0.5088054089035984 0.4703106876101231 0  0.4827172159180474 0.4800704346029545 0  0.4867051962829534 0.4523577751768063 0  0.4608400096265582 0.4615468301311814 0  0.4651760079002965 0.4329995002932236 0  0.4390460990874273 0.442522508447449 0  0.4430826464393881 0.4139760017507118 0  0.4171356128124851 0.4233739691848949 0  0.4130905253655773 0.4519920096639677 0  0.3913445643046266 0.4326539650351039 0  0.4692414479742736 0.4044866234846146 0  0.3876022457397219 0.4609502726830002 0  0.3668964077639335 0.4419708489242469 0  0.3634861651031949 0.4688908543963421 0  0.4086180314845288 0.4806990910034102 0  0.371450036715645 0.4143238814744397 0  0.342810592179652 0.4509172795962649 0  0.4540465838932617 0.4923233493928795 0  0.4461081373200892 0.385391779706141 0  0.4700547913934621 0.3757347454024111 0  0.4899793950518042 0.4251857482079276 0  0.4347376140658392 0.4711997584725549 0  0.4978789901491715 0.3975422131792406 0  0.4205028327508845 0.3951107341672164 0  0.3954468758803775 0.4047142122800971 0  0.4043624296700231 0.5116519749642024 0  0.3485135715089027 0.5090769381683334 0  0.4594731703277249 0.5221939021162414 0  0.3073245423163142 0.4273870896832768 0  0.3147937134743539 0.4551882804010018 0  0.4220844294644069 0.3657992717066965 0  0.3384795201015375 0.4801317192662171 0  0.2972263368083504 0.4967760957228458 0  0.2668285753306425 0.459305603425711 0  0.3733818932207782 0.3873512163263266 0  0.5270144616030618 0.4058009439425765 0  0.5323940395751505 0.4588510997752535 0  0.3848393039833808 0.4878172615383788 0  0.2902887278125324 0.4704232032459977 0  0.5149869357646985 0.3576165687530201 0  0.350689235889055 0.3995477692093345 0  0.4715882202962264 0.3476656141576594 0  0.4282892578695023 0.4949432645461844 0  0.4952733643255167 0.3688296871452749 0  0.5102329742924739 0.4440832830571643 0  0.3126931693776525 0.4811144812672571 0  0.3488047682891489 0.4252920795912958 0  0.4757263269290691 0.5026954185336848 0  0.506659734269733 0.5268514428159786 0  0.3620217176177777 0.4919626290396678 0  0.5111699820110537 0.4210256306625226 0  0.3265775514836622 0.4349495645749818 0  0.5597534216569655 0.3694381531924432 0  0.5755400289425565 0.4590896670136687 0  0.3422704535115784 0.5509057019482529 0  0.5105256697754781 0.565164619693224 0  0.9710420236884568 0.6956896636648464 0  0.638145078003039 0.9774258104449416 0  0.4244852867155453 0.5651506666768431 0  0.9796383460271499 0.5356495534018114 0  0.9691499922382881 0.2768985500437748 0  0.2841895905766443 0.9667792805304439 0  0.3287214624164381 0.360724319849444 0  0.4010049136082066 0.3212632085699421 0  0.4380053410791163 0.9748551583172571 0  0.2616723071494861 0.5271542145247912 0  0.05862101212308184 0.7438548844658902 0  0.693936124570202 0.04986313428196339 0  0.2589622558276027 0.4053331703967991 0  0.5702748778904241 0.5183976512111176 0  0.7934299322170626 0.9767774718683748 0  0.2371077906707271 0.05012760814517782 0  0.0571432184000583 0.2384858727397848 0  0.2191236216260943 0.4419250075772494 0  0.546597842430555 0.05514174533013361 0  0.3940786724187831 0.05119162273479966 0  0.8383711113507842 0.04686133682081749 0  0.2075717451963785 0.4818641465310183 0  0.4566376166962154 0.3042171659096541 0  0.05689077433971389 0.5901847079043411 0  0.9781742778843441 0.8426787754040875 0  0.0542556180673786 0.336785175069594 0  0.5640495558049439 0.5432760128812356 0  0.5861729132326162 0.5338088214975737 0  0.5
[...]
<PointData  Scalars="v"> 
<DataArray  type="Float64"  Name="v"  format="ascii">9.4117082666169161e-21  1.9491923413239235e-21  -2.1714632800205133e-20  3.2906599963818456e-20  -1.9909922979075554e-21  -8.9771422573017325e-22  1.3546016476311264e-21  1.0781608626378326e-22  2.8599879924457554e-02  9.8430552079364781e-20  1.6127929682488228e-19  4.5610540502958374e-20  -2.2221531315845936e-19  -2.6289909355851140e-19  -1.5981120628803376e-19  -4.4463904604897819e-19  -3.2331968372858506e-19  -2.1774583096653755e-19  3.9002296072710428e-19  1.1568490171899527e-18  -4.1148327588948418e-19  -1.7262307308403695e-19  6.5165193646783592e-19  3.1630247262095048e-19  -4.9269766638640067e-20  3.9580162829258051e-20  2.2824374099639479e-19  -1.2378573833789996e-19  7.5708129738392517e-20  0.0000000000000000e+00  -3.6240493960363949e-19  -2.4775643145228993e-20  -1.2731201756131222e-19  5.7536293801315221e-19  -4.3205006565854390e-19  -5.7805087596350205e-19  -1.0577365192241268e-19  9.3231876621908165e-19  4.2672147381849615e-19  4.3880983161270782e-19  1.8824809643932985e-19  7.7504249043826701e-19  -4.6404000692511206e-19  8.4888526727279733e-20  4.1016260188290222e-20  -4.4773583471195182e-20  -2.2717276761374808e-20  -1.0463806674102727e-19  -5.0423586570513522e-20  1.0414753495044759e-19  -6.7989632547588195e-21  -1.1323222526898967e-19  4.9538429016424003e-19  -1.9685827831166197e-19  -1.8695265971631240e-19  9.3487431466470075e-20  1.3030611929428175e-19  3.5387665914312179e-19  2.3132858645110437e-19  -3.8147460771097368e-20  -1.1064643087732027e-19  2.4076941386940917e-19  -5.4046002632924199e-21  -1.3451580598289438e-19  -7.4707107363909378e-20  0.0000000000000000e+00  7.9830998980215771e-20  4.2680309438223437e-20  -1.6310946905812683e-19  2.5781993909977242e-20  1.7404876118442904e-20  1.7829189366884904e-19  -2.1541372347789238e-19  -6.3451774692785978e-20  -6.1632828046849861e-19  -2.8786543583158627e-20  -2.5685886422165999e-19  -1.5882257051247852e-19  -3.3115663527075257e-19  -3.1404328401858307e-19  1.8404079569496095e-19  1.0939876794186981e-19  -1.9765134754619621e-20  5.8982619292776028e-20  -1.4319872810038308e-20  -9.3866599597790796e-22  1.1874267689730434e-21  1.3990782112678613e-20  2.2701570911748957e-20  2.0854225735308879e-21  -1.8098623396887451e-20  -6.6004888136490929e-20  -9.8538156620464242e-20  -3.5782526526598543e-20  -5.9145422920424395e-20  -2.5770694919991272e-20  1.0746516164389367e-19  1.1783055108955342e-19  -2.9375552742268940e-20  -4.2590175320333165e-21  8.7589125495238557e-20  4.6638451667531407e-20  -3.8447928321831636e-21  7.9381367785598365e-21  2.3889233316847915e-20  -3.8945081875904853e-21  -6.6013666962458141e-21  3.2439730837705909e-21  -1.0139683403013082e-21  2.9137572473964158e-21  1.2555614731684283e-20  -1.0202713939556514e-20  -3.3135804797230005e-20  -2.9389435790977247e-20  1.2390510212711074e-20  2.9159869284114339e-20  -3.8177226429441171e-20  -9.4498081663810756e-20  4.6619345726533412e-21  1.0391367289849694e-19  7.6705444599212089e-20  4.0922349652947289e-20  6.7894462335539852e-20  2.5756803086578643e-20  -2.6335608520467659e-20  -1.1866717263877789e-20  1.3566625199105973e-20  -5.3497925164969422e-21  -3.6463645905742450e-21  3.4477964046591088e-21  7.7719442299682184e-22  2.2143811297535842e-21  1.1517610182007438e-21  -1.2523953231479876e-20  -1.8628215348348030e-21  1.1808724043365588e-20  -7.6707577528339497e-21  6.3283095619357245e-21  3.8390621882030151e-20  -1.2237221011863516e-20  -2.8381980705390146e-20  4.8618517571980564e-21  3.3527405816925461e-20  4.6724640375420904e-20  5.1604635884634896e-20  -6.6620004751964016e-21  -7.8790900051680564e-21  2.3931397997590971e-20  7.1853575221801079e-21  -2.5490254452727600e-20  -9.2547505078478771e-21  -1.7284175757530977e-21  -1.2305496261382751e-21  -6.5446446296332591e-22  -1.6110614882940368e-21  -5.4422982214636897e-22  1.0914125412242194e-20  1.2911409684681490e-21  -1.4501226968969645e-20  -6.5911368794132801e-21  1.3064235263540860e-20  9.3663160075367145e-21  -9.1858834481920780e-21  -3.6287107132572375e-20  -5.6940163716983714e-20  -2.9260804138076001e-20  -2.1194425910275751e-20  -3.1799086361034917e-20  -4.4419834314622475e-20  -3.7476198510781670e-20  1.7190700712041237e-20  1.4694717895393991e-20  3.7290317870782238e-22  4.2302416260584334e-21  8.0509777906798937e-22  -1.0224192548109408e-21  6.9804641539070582e-22  2.8763334204158969e-02  2.8796998272742434e-02  2.8709275429007128e-02  2.8441290212750409e-02  2.7971354176512080e-02  2.7295308707235809e-02  2.6417815686425254e-02  2.5344695739384283e-02  2.4133037487974476e-02  2.3066269371226085e-02  2.2675865429442176e-02  2.2629820220741542e-02  2.2596271173460573e-02  2.2468384187895957e-02  2.2230303490589159e-02  2.1862600620416114e-02  2.1360266417232172e-02  2.0725425839504930e-02  1.9950411503941650e-02  1.9070701467113677e-02  1.8132860186849686e-02  1.7352350393873249e-02  1.7967195057894889e-02  1.9704567278980480e-02  2.1323703610340340e-02  2.2795406900146389e-02  2.4111822705350436e-02  2.5275595841338143e-02  2.6286263116696781e-02  2.7126031464892664e-02  2.7789878852965799e-02  2.8288887845639432e-02  2.7923505942505117e-02  2.4086452431682562e-02  2.7847561271270724e-02  2.2658083117870674e-02  2.6013560830360351e-02  2.4458590002487686e-02  2.8738362977051613e-02  2.3708831851872222e-02  2.6251066577148416e-02  2.1159048572740272e-02  2.8835480855296469e-02  2.4474533916010264e-02  2.0884718374569632e-02  1.9352815855912361e-02  2.8980472488609063e-02  2.8854697281642847e-02  2.8592670876270054e-02  2.8492508585331124e-02  2.8119613091061403e-02  2.7928480966139743e-02  2.7427706757548815e-02  2.7137123021957789e-02  2.6469541456976001e-02  2.6085467653242177e-02  2.6656603089201664e-02  2.5527538728356395e-02  2.6644508443907644e-02  2.5991521143590216e-02  2.4842466624673074e-02  2.5192089907387950e-02  2.6935360542958690e-02  2.4362999287722158e-02  2.4006421560530164e-02  2.8178889138728565e-02  2.5578085724449556e-02  2.5632503181561687e-02  2.7538257891200638e-02  2.7523844510429444e-02  2.6758515272779251e-02  2.5327787395242406e-02  2.4909730008271475e-02  2.7039568265911161e-02  2.4943442765999840e-02  2.8391757198918077e-02  2.1922756173796805e-02  2.2762019464564607e-02  2.4346513568922527e-02  2.4259367829230091e-02  2.2334878042948009e-02  2.0287919158726068e-02  2.3668081014576566e-02  2.7180500044477893e-02  2.8468599354100597e-02  2.6229617906786528e-02  2.1710525825563095e-02  2.5344062873931043e-02  2.3186437917898015e-02  2.4532238455393606e-02  2.7610237265106967e-02  2.5670540485454724e-02  2.8133810946894214e-02  2.2990027670512111e-02  2.3751510996660952e-02  2.8582415670161863e-02  2.8911200806920195e-02  2.5396330511343202e-02  2.7572145680756884e-02  2.2979892999567864e-02  2.5637070971093329e-02  2.8026363595737163e-02  2.4465686126330880e-02  2.8478630797453879e-02  2.1913184658892866e-03  1.8399367423730271e-03  2.7206431434795154e-02  1.9030928685190504e-03  2.1296968639969742e-03  2.2496356378347896e-03  2.0832784527041254e-02  2.1693472805547915e-02  2.1816374909436852e-03  2.0351473210821553e-02  3.6552414028640646e-03  3.5257443124519878e-03  1.8693092387390791e-02  2.8584918588233602e-02  1.2615186885962533e-03  2.7579021929616662e-03  3.1875464422645963e-03  1.6923752376786380e-02  4.6134411050099645e-03  3.9952671315348432e-03  1.9814901710633482e-03  1.6607283448433312e-02  2.1872410557729271e-02  4.7581160595248796e-03  9.4616385747728446e-04  3.9706412407682513e-03  2.8585790390301919e-02  2.8386944188600320e-02  2.8275465715296363e-02  2.7954525521080686e-02  2.7718505551226159e-02  2.7258836215709497e-02  2.6849344968235017e-02  2.6243436588998859e-02  2.5619566557094790e-02  2.6167275850726882e-02  2.6515782106694342e-02  2.4708762471772665e-02  2.5097795524747873e-02  2.4649585440759614e-02  2.3497283941138356e-02  2.3664931069207945e-02  2.1936654874212903e-02  2.1642149090012601e-02  2.1909983165396201e-02  2.3509516857607035e-02  2.1534222607118157e-02  2.3022558147592798e-02  2.0855576929873977e-02  2.2224750386952492e-02  1.9924107475894518e-02  2.1174050160230846e-02  1.9942711083472037e-02  1.9514457065714863e-02  1.8750873325109451e-02  1.9841796017885726e-02  1.9249645571614044e-02  1.7673506020298834e-02  1.7129422669116854e-02  1.7325002728203684e-02  1.8247919510777890e-02  1.5205389587830909e-02  1.4579441244139100e-02  1.6224319871199031e-02  2.0586965723735393e-02  1.8823699086601423e-02  1.6455434333419370e-02  1.6860232759065390e-02  1.4494341781838558e-02  1.3551700549253365e-02  1.4882819251013465e-02  1.9003941297542747e-02  1.6866844051836829e-02  1.5475799783149915e-02  2.3311787081420413e-02  1.8763667760466209e-02  1.6432511598522472e-02  1.6049265491187917e-02  1.1943011093477406e-02  1.8618139651126347e-03  1.0868356849756275e-02  2.0366932444523013e-03  1.6897224363324401e-03  1.3361901593575752e-03  1.4291329980310637e-03  2.0687287065228398e-02  1.7164593942626025e-02  1.5661645123722281e-02  1.6092542754243624e-02  1.4304045942199931e-02  1.3897681679194560e-02  1.4581962203856816e-02  2.8041674516951040e-02  1.2959800158991161e-02  1.4538511713814751e-02  1.4567077651095474e-02  1.9983039439886350e-03  1.3884455623269716e-02  1.2905601684116308e-02  1.8086819023422244e-02  1.6484379929151610e-02  1.4788573651306166e-02  9.3331452089693359e-03  1.1998472223877203e-02  2.4786435380219060e-02  1.2333918870199294e-02  1.2292887554438553e-02  1.8031082892642793e-02  1.6011823455938101e-02  1.3141726266840350e-02  1.3829291976412960e-02  1.6647643445323525e-02  1.4244963557375449e-02  1.6997494418876130e-02  1.4410845886343207e-02  1.7065799015548201e-02  1.4216399076613536e-02  1.6770078496504807e-02  1.3793188007417285e-02  1.6155606349767000e-02  1.9006983668793529e-02  1.8212835593913606e-02  1.5351531370752182e-02  1.7173396494090814e-02  1.9851236527593890e-02  1.8623278688398123e-02  1.5909705856112996e-02  1.7110060640903944e-02  1.4440857702131103e-02  1.5317363241743877e-02  1.7853093685910013e-02  1.2862469790741670e-02  1.5800111526602850e-02  2.2935668851774362e-02  1.8123620036690557e-02  2.0488109196386162e-02  1.5862945430136360e-02  1.7953403551178988e-02  1.5486241499486252e-02  1.7372548185726686e-02  1.3709622231776877e-02  1.3103461133415503e-02  2.0070157392994229e-02  1.4700488660988064e-02  1.6782560585405868e-02  1.3108577686725258e-02  1.1605237244629489e-02  1.1337993131709486e-02  7.9678018040987364e-04  8.2474763012442484e-03  6.8698333988847287e-03  1.9557478464631788e-02  2.2052762388307636e-02  2.1874092777474295e-02  2.0910230866590756e-02  2.2707174794638667e-02  7.5566934125873000e-03  1.0387892086479706e-02  1.3355036876772457e-02  1.1337714032497549e-02  1.2703149441728319e-02  2.7970326607966958e-02  1.0046569974140152e-02  1.2398862493430399e-02  1.2543930817662445e-02  9.9276948068673723e-03  1.4483442346981493e-02  1.1204490621706547e-02  1.3626083027931854e-02  1.5200324122898698e-02  1.2931814467703551e-02  1.1339335867969572e-02  1.1128019204735223e-02  1.0602988147991956e-02  1.2747718546026379e-02  1.8221250341969009e-03  9.8271842916453737e-03  1.2616533037208699e-02  1.0308183440191923e-02  1.2354184113685523e-02  1.6735681644252764e-02  2.1369894140782254e-02  9.5361966237513390e-03  9.4049088031876536e-03  9.9803273203184373e-03  9.4432197211263922e-03  5.8361358878739307e-03  6.7436336746204218e-03  4.7566625189774453e-03  2.6253722647852314e-02  7.4803099316752379e-03  7.9036005234104836e-03  1.2763651910278626e-02  2.1088023306962474e-02  2.2216853391603307e-02  2.3214760046715306e-02  2.4183415657060347e-02  2.4971389632182386e-02  2.5758053553482090e-02  2.4875305935442737e-02  2.6310926335591203e-02  2.5407789597448136e-02  2.6476671987433590e-02  2.5501593067453327e-02  2.4268216906210793e-02  2.4387925918790319e-02  1.2148049757213468e-02  1.3680174005197689e-02  1.0425810600662284e-02  7.6872242655036231e-04  8.6319209748508493e-04  2.2236008519489949e-02  2.1079451985631457e-02  1.6458914114155107e-02  1.4886771094643442e-02  1.2113651466743395e-02  1.3294678713079941e-02  1.5916183298673888e-02  1.4276146717532219e-02  1.7134883990647668e-02  1.5104611158242411e-02  1.7459990772584612e-02  1.5544007279447969e-02  1.3165261014754957e-02  1.3557569158671874e-02  1.5779430074481640e-02  1.3701318809817214e-02  1.5694700343678127e-02  1.3520193593746182e-02  1.5270190339283717e-02  1.2977213094479426e-02  1.1270514730004849e-02  1.4494475984258563e-02  1.2068579868582707e-02  1.1063318223264947e-02  1.3341982634795324e-02  1.0803036909309957e-02  9.7398404845048699e-03  1.8084777950032029e-02  1.6790327654952201e-02  1.1374367060189862e-02  2.3679544576521473e-02  8.4487138212620914e-03  7.8797645768170395e-03  8.2700664854136793e-03  7.5902912472646513e-03  1.1894261148097810e-02  1.4700185356012630e-02  9.0808275631709835e-03  1.3887750631037022e-02  1.1968186212286853e-02  8.0812905984714422e-03  2.3012297324923155e-02  1.9131883854125210e-02  1.9360993683442775e-02  2.6363334476611513e-02  2.6925879269068677e-02  7.9183932846198391e-03  5.0936618631577616e-03  2.2905532864237039e-02  5.6872682215604298e-04  1.1119513529969201e-02  9.3153337406791676e-03  8.2294936081837543e-03  6.6122677203828443e-03  1.4499952763898288e-02  2.0697737742666422e-02  1.0450474418468860e-02  8.2936554915427167e-03  8.9363400931713327e-03  5.7365790273119239e-03  5.9439026564177509e-03  4.1355052116129019e-03  3.9745534458096058e-03  5.5468791951315839e-03  4.4309581446520937e-03  4.9678262152078479e-03  7.4991976882312211e-03  7.4116097983397324e-03  9.9840535145674352e-03  6.7547123201984870e-03  9.1233960816989347e-03  5.9690648020166203e-03  8.1758901217871549e-03  1.8216228853520526e-02  1.8458200056897713e-02  1.6835344763323844e-02  1.9849392861736384e-02  1.9918171025640145e-02  2.1342017037334005e-02  2.1317292085233072e-02  2.2628237739568281e-02  2.2576900501369263e-02  2.3825883661893896e-02  2.3632468685187074e-02  2.4880286256182899e-02  2.4634603551740807e-02  2.5804058297477419e-02  2.5405130156844959e-02  2.6636659909453360e-02  2.5956143315290434e-02  2.6971022677158431e-02  2.6176193538923160e-02  2.7155626971691004e-02  2.4566938510237314e-02  2.7694473888570211e-02  2.7829250215871102e-02  2.7143428551605057e-02  2.7825262949495340e-02  1.1874789642866762e-02  8.0839652206173649e-03  1.4859058700734821e-02  7.4961247010718610e-03  2.5813810864809054e-02  2.1198613452588052e-02  1.0262110674900573e-02  1.0443977872339381e-02  5.9016814768844631e-03  1.4698333337996104e-02  2.1271320307275653e-02  6.5956574503012837e-03  7.2403670848061466e-03  1.9846822287068560e-02  2.0567266376371521e-02  1.2395449837365981e-02  1.5790964272892123e-02  2.2416591812695376e-02  3.2583993046771155e-03  9.4790773823094157e-03  4.9649059261099773e-03  2.9589526147970396e-03  2.7438838868702589e-02  3.6353152190401116e-03  2.2765830461111389e-02  6.3007952382593338e-03  6.9752452849005386e-03  9.2682653833783529e-03  7.2357014127131464e-03  4.8417232151503238e-03  2.7143368061293294e-02  7.9545868443292849e-03  2.5282886800461927e-02  2.3281562821617356e-02  2.8596095390631848e-02  1.9762678101466705e-02  5.8938044455121574e-03  2.3739198500346520e-03  2.8003130787426535e-02  5.1115948809090745e-03  7.9336733641801951e-03  5.0527974330148596e-03  2.7064775406383024e-02  2.8398820867851601e-02  2.7962627506803419e-02  2.0406254227992474e-02  1.9263118334438292e-02  2.0853911416744881e-02  5.3382997409686210e-03  6.8669970379444892e-03  3.9310348087114640e-03  5.0331668692685932e-03  1.9599979515491101e-02  5.1543434685923087e-03  7.1148573798868733e-03  4.2525492257983787e-03  5.9296326135612068e-03  8.5344721596064682e-03  7.0886987068300286e-03  4.7117607033221043e-03  5.4488402069159383e-03  7.7511257682510203e-03  3.4264840123372988e-03  5.7266421671221413e-03  7.8653742645197582e-03  5.3675193115596915e-03  7.3670347154004062e-03  1.0061074533877157e-02  2.7304076155395346e-02  1.7815503844176211e-02  1.7535259671808339e-02  1.8334132576446890e-02  1.6449455339697851e-02  1.9360434497863219e-02  1.7756008034039091e-02  1.9372783632500556e-02  1.8864454277752504e-02  1.8060890383210342e-02  1.9436160856070039e-02  2.0224171380654871e-02  2.4564226907549776e-02  8.7946057755960531e-03  6.9269323315540319e-03  8.5170384218708397e-03  7.4841652322869502e-03  4.9186734757490306e-03  2.0089667892551989e-02  2.6637837181727225e-02  2.0630386666606261e-03  5.7382352559219186e-03  1.6121561951972882e-02  3.6193034490585724e-03  6.2345388444279871e-03  5.1856515560239971e-03  2.5827138672503166e-03  4.2479723341394765e-03  6.5246180842141385e-03  4.9963154407943501e-03  3.1499030470101292e-03  1.4348109158768053e-03  7.4933292265760010e-03  2.1204842748703719e-02  2.2612038747713222e-02  2.2090505886202566e-02  1.9678035176678429e-02  4.5947281019994698e-03  1.9504463350622878e-02  1.2945131700802538e-02  1.3861553941186775e-02  2.1698268044202804e-02  2.0855803719568907e-02  2.1900670365705303e-02  1.9559365639136610e-02  2.1826416237336339e-02  2.1609461304110171e-02  2.3663700369720507e-02  2.3656380257883601e-02  2.3290755667275970e-02  2.1126303827978896e-02  2.2759444974367191e-02  2.5352092141145165e-02  2.0469949184647097e-02  2.8133237304571394e-02  2.4202802647519384e-02  2.5972015904930774e-02  1.6665076941886961e-03  4.9087098035067835e-03  2.3953626600184425e-02  1.5368368932324050e-02  1.7780232324043951e-02  2.1822275450119112e-03  9.5532472095773945e-03  2.2050742644806249e-03  2.3516904690238424e-03  1.0079083824799481e-02  9.4180685760761190e-03  3.9932500565684334e-03  3.7001147347500490e-03  5.9307661558570760e-03  1.7745583344607994e-02  2.1541408748497963e-02  2.1248647442387827e-02  2.0670877495455722e-02  2.0849837020184711e-02  2.3941863903122692e-02  2.3747811831138230e-03  4.0190636088322917e-03  5.2130901585790554e-03  1.7861916097124956e-02  4.2087681514244232e-03  7.8811797442248296e-03  7.3512713392329130e-03  2.6348749774757312e-03  2.5034583879739815e-02  7.1562400361022726e-03  1.9281678700320749e-02  2.6274178039007608e-02  2.0581342855305151e-03  2.0342437807114788e-03  1.9493540071032216e-03  1.0224795635107687e-02  2.4206672879201186e-02  1.3959049313477885e-03  1.7747937452544910e-02  9.3976302432284258e-03  4.7356018409254437e-03  1.5245157589384628e-02  9.9807389856385216e-04  1.2843595325502829e-02  6.7444935651225250e-03  1.4079958533786930e-03  1.0817358808078768e-03  3.2232990590347786e-03  2.2034708382006399e-03  1.3674733379010155e-03  2.0454728957329960e-02  1.6892995991929151e-02  1.2299416133209893e-02  2.6634574761203879e-02  1.5588274441910049e-02  7.6654446128030310e-04  2.2423069677962658e-03  4.2119551005237498e-03  2.0204145982688358e-02  1.3123377607173468e-02  2.3117873545417670e-02  1.2910729437296366e-03  3.5115583975437827e-03  3.4165051401593453e-03  5.2575172969078834e-03  8.7066467425956223e-03  1.0940692653892399e-02  1.7373915360251600e-03  1.8746887805794955e-02  1.0058254947630293e-02  2.7319914146454110e-02  2.5194515361744982e-02  1.9258244147840796e-02  8.4668093465050612e-03  1.3904776868267328e-02  5.3277254380702322e-03  2.5559638523515112e-02  1.1471190306782075e-02  1.2143858021631647e-02  2.5189760808133382e-02  5.1250044886791083e-03  7.0148783044630351e-03  1.1513197725714488e-02  1.0072120987484633e-02  1.7377481084220249e-02  1.3577417789367722e-02  2.1948198461452975e-02  1.2634957569722528e-02  1.8446245320328621e-02  6.8085189161527096e-03  7.3639538442357485e-03  2.3318239916057151e-02  1.9813087645120717e-02  1.5677857562592080e-02  2.8292007118805817e-02  2.8257847089670291e-02  2.7714157374436225e-02  2.6269487133019696e-03  3.0355201676621124e-03  4.9953956409224285e-03  1.4801593518140581e-02  1.5240960997443926e-03  7.9547524877015793e-04  4.9905449760906453e-03  1.1381771042575986e-03  4.4510680404776491e-04  1.2442547963656301e-02  1.7896367350596870e-03  2.6472894144406019e-02  4.1383885890319012e-03  1.1629450262843996e-02  2.7436