<?xml version="1.0"?>
<VTKFile type="UnstructuredGrid"  version="0.1"  >
<UnstructuredGrid>
<Piece  NumberOfPoints="1277" NumberOfCells="2456">
<Points>
<DataArray  type="Float64"  NumberOfComponents="3"  format="ascii">0 0 0  0 1 0  1 1 0  1 0 0  1.1 -0.1 0  -0.1 -0.1 0  1.1 1.1 0  -0.1 1.1 0  0.5069150031986545 0.5049286743761937 0  0.6391072766552232 0.7189624880845109 0  0 0.9499999999997918 0  0 0.8999999999995836 0  0 0.8499999999996529 0  0 0.7999999999999998 0  0 0.7500000000003466 0  0 0.7000000000006934 0  0 0.6500000000010401 0  0 0.6000000000013869 0  0 0.5500000000017335 0  0 0.5000000000020587 0  0 0.4500000000018723 0  0 0.4000000000016644 0  0 0.3500000000014564 0  0 0.3000000000012483 0  0 0.2500000000010403 0  0 0.2000000000008322 0  0 0.1500000000006241 0  0 0.100000000000416 0  0 0.05000000000020799 0  0.04999999999989965 0 0  0.09999999999981467 0 0  0.1499999999997036 0 0  0.1999999999995579 0 0  0.2499999999994121 0 0  0.2999999999992664 0 0  0.3499999999991206 0 0  0.3999999999989749 0 0  0.4499999999988292 0 0  0.4999999999986943 0 0  0.5499999999988151 0 0  0.5999999999989468 0 0  0.6499999999990784 0 0  0.69999999999921 0 0  0.7499999999993417 0 0  0.7999999999994734 0 0  0.8499999999996051 0 0  0.8999999999997368 0 0  0.9499999999998684 0 0  1 0.04999999999989965 0  1 0.09999999999981467 0  1 0.1499999999997036 0  1 0.1999999999995579 0  1 0.2499999999994121 0  1 0.2999999999992664 0  1 0.3499999999991206 0  1 0.3999999999989749 0  1 0.4499999999988292 0  1 0.4999999999986943 0  1 0.5499999999988151 0  1 0.5999999999989468 0  1 0.6499999999990784 0  1 0.69999999999921 0  1 0.7499999999993417 0  1 0.7999999999994734 0  1 0.8499999999996051 0  1 0.8999999999997368 0  1 0.9499999999998684 0  0.9499999999997918 1 0  0.8999999999995836 1 0  0.8499999999996529 1 0  0.7999999999999998 1 0  0.7500000000003466 1 0  0.7000000000006934 1 0  0.6500000000010401 1 0  0.6000000000013869 1 0  0.5500000000017335 1 0  0.5000000000020587 1 0  0.4500000000018723 1 0  0.4000000000016644 1 0  0.3500000000014564 1 0  0.3000000000012483 1 0  0.2500000000010403 1 0  0.2000000000008322 1 0  0.1500000000006241 1 0  0.100000000000416 1 0  0.05000000000020799 1 0  -0.1 1.05000000000004 0  -0.1 1.000000000000079 0  -0.1 0.9500000000001624 0  -0.1 0.9000000000003032 0  -0.1 0.850000000000444 0  -0.1 0.8000000000005848 0  -0.1 0.7500000000007256 0  -0.1 0.7000000000008665 0  -0.1 0.6500000000010508 0  -0.1 0.6000000000012352 0  -0.1 0.5500000000014196 0  -0.1 0.500000000001539 0  -0.1 0.4500000000014195 0  -0.1 0.4000000000013 0  -0.1 0.3500000000011588 0  -0.1 0.3000000000010178 0  -0.1 0.2500000000008986 0  -0.1 0.2000000000007579 0  -0.1 0.1500000000006174 0  -0.1 0.1000000000005272 0  -0.1 0.05000000000040083 0  -0.1 2.671196597248127e-13 0  -0.1 -0.0499999999998666 0  -0.0500000000000906 -0.1 0  -1.730560139634463e-13 -0.1 0  0.04999999999975802 -0.1 0  0.09999999999961506 -0.1 0  0.1499999999994613 -0.1 0  0.199999999999302 -0.1 0  0.2499999999991446 -0.1 0  0.2999999999990088 -0.1 0  0.3499999999988296 -0.1 0  0.3999999999986936 -0.1 0  0.4499999999985143 -0.1 0  0.4999999999984002 -0.1 0  0.5499999999985247 -0.1 0  0.5999999999986493 -0.1 0  0.6499999999987955 -0.1 0  0.6999999999989417 -0.1 0  0.7499999999990659 -0.1 0  0.7999999999992116 -0.1 0  0.8499999999993573 -0.1 0  0.8999999999994526 -0.1 0  0.949999999999584 -0.1 0  0.9999999999997226 -0.1 0  1.049999999999861 -0.1 0  1.1 -0.0500000000000906 0  1.1 -1.730560139634463e-13 0  1.1 0.04999999999975802 0  1.1 0.09999999999961506 0  1.1 0.1499999999994613 0  1.1 0.199999999999302 0  1.1 0.2499999999991446 0  1.1 0.2999999999990088 0  1.1 0.3499999999988296 0  1.1 0.3999999999986936 0  1.1 0.4499999999985143 0  1.1 0.4999999999984002 0  1.1 0.5499999999985247 0  1.1 0.5999999999986493 0  1.1 0.6499999999987955 0  1.1 0.6999999999989417 0  1.1 0.7499999999990659 0  1.1 0.7999999999992116 0  1.1 0.8499999999993573 0  1.1 0.8999999999994526 0  1.1 0.949999999999584 0  1.1 0.9999999999997226 0  1.1 1.049999999999861 0  1.05000000000004 1.1 0  1.000000000000079 1.1 0  0.9500000000001624 1.1 0  0.9000000000003032 1.1 0  0.850000000000444 1.1 0  0.8000000000005848 1.1 0  0.7500000000007256 1.1 0  0.7000000000008665 1.1 0  0.6500000000010508 1.1 0  0.6000000000012352 1.1 0  0.5500000000014196 1.1 0  0.500000000001539 1.1 0  0.4500000000014195 1.1 0  0.4000000000013 1.1 0  0.3500000000011588 1.1 0  0.3000000000010178 1.1 0  0.2500000000008986 1.1 0  0.2000000000007579 1.1 0  0.1500000000006174 1.1 0  0.1000000000005272 1.1 0  0.05000000000040083 1.1 0  2.671196597248127e-13 1.1 0  -0.0499999999998666 1.1 0  0.6650093624285142 0.7125964743654675 0  0.6892173650726977 0.7042015461577744 0  0.7114027494373509 0.6930747276196473 0  0.7307732206152148 0.6788838283628511 0  0.7478432127477251 0.6623573963325013 0  0.7623364017162549 0.6431328402557053 0  0.7745434099312323 0.6218647774123334 0  0.7840876693674242 0.5987620304314333 0  0.7913562144695581 0.5743857825898421 0  0.7965649599296583 0.5491160970393573 0  0.7995859498196501 0.5236336232352612 0  0.8006604843119033 0.4979539255015339 0  0.7998433433841489 0.4723802018756763 0  0.7968211798963425 0.447059919702988 0  0.7915547782550424 0.4227208166441371 0  0.7846682494523955 0.3993485009071243 0  0.7753351464420345 0.3774976178623096 0  0.7637104994520756 0.3575355543986843 0  0.7499779519957659 0.3396286140317384 0  0.7339841765949032 0.3240820376310625 0  0.7157904471499723 0.3098098554021606 0  0.6940480392088793 0.2985200648439076 0  0.6694560769702671 0.2895034682765639 0  0.6427372316608529 0.2833843552571066 0  0.6143156560863955 0.2795472968690187 0  0.5850461025905255 0.2773474040528255 0  0.5542845391046977 0.2761456999296254 0  0.5233656362863724 0.275830738432846 0  0.4926442118368461 0.2758148898649972 0  0.4618067352051814 0.2758574812687076 0  0.4312545017940644 0.2759437137250232 0  0.4010136563661141 0.2770261947389462 0  0.3731405550709679 0.2795766659909823 0  0.3475852148885572 0.2842405589906237 0  0.3237733732890276 0.2906479163683241 0  0.3033508714475698 0.2989595604263892 0  0.2851349208050729 0.3090039388127393 0  0.2688415690624243 0.3207595803822161 0  0.2543808691485254 0.3344197857615422 0  0.241615470377768 0.3501985808717791 0  0.2305334771796606 0.3679509783421737 0  0.2204977563361606 0.388712979384558 0  0.2117845015775313 0.4122968610856887 0  0.2052433277584649 0.4385410805504381 0  0.2012281282358085 0.466340394970377 0  0.1992972747950882 0.4942640505560793 0  0.1993399229902708 0.5230730986304052 0  0.2026161900568305 0.5511194282731332 0  0.2081732436224637 0.5785936793918383 0  0.2168439365471347 0.6047629294771274 0  0.2280938126731353 0.627266064738084 0  0.2406642782596278 0.646725163473118 0  0.2542173717478822 0.6629777454702511 0  0.2688490071951147 0.6768839997648506 0  0.2850249074655107 0.6889171916397787 0  0.3032740349855868 0.6994950144869201 0  0.3239826627846311 0.7083532501284934 0  0.347087938050293 0.7150919112289713 0  0.3724560643715699 0.7198112163913329 0  0.4005201994137718 0.7221100748448225 0  0.4296273306664745 0.7238560775618615 0  0.4598245457539357 0.7245794773619795 0  0.4904261072267914 0.7248622688373342 0  0.5212257844301614 0.7251969173824206 0  0.5519521895049331 0.7256331877002663 0  0.5827565931878868 0.7257656002593725 0  0.6119048566876577 0.7233402339149875 0  0.2627471158539774 0.6331997456998969 0  0.2446746147370314 0.3982278053316178 0  0.7479507635797189 0.6239322430265271 0  0.7756615438218667 0.5341770378082942 0  0.6429150387186545 0.6979289016254797 0  0.6214419552739837 0.2984221953344024 0  0.7232141853180374 0.3457126524347791 0  0.5131922457654382 0.2925440404050086 0  0.2825123375826817 0.3487429595426191 0  0.3304563970373527 0.3142848478439102 0  0.4309499150172741 0.3001322240614064 0  0.3098601811510768 0.67343284688276 0  0.3715024583499258 0.6965698875951948 0  0.451411178962247 0.7038268855587323 0  0.537450520151606 0.7071478184673425 0  0.7647810657183899 0.4186475117936039 0  0.2213786654421251 0.5549964328669825 0  0.2210776374411533 0.4647861171950887 0  0.7072487228732252 0.6698723436629767 0  0.375311729766422 0.3025057699686207 0  0.7739717366054782 0.4649557066945347 0  0.5932884758219724 0.7057369381856675 0  0.7656900538464294 0.5786175898326085 0  0.7472405883955152 0.3790403564813942 0  0.6891516406116602 0.3187846094410489 0  0.5725863217487135 0.2917082123231188 0  0.2377712803205415 0.5992931708134135 0  0.2141024300181771 0.5077449995543193 0  0.4806217727360653 0.7052712827887693 0  0.4735239696049813 0.6838218207397635 0  0.4440573576761928 0.6819680052148122 0  0.4663404877122261 0.6612546035578809 0  0.434933684843558 0.6589040396088321 0  0.4532640888417955 0.6405648242213851 0  0.4803574546360339 0.6356385498983063 0  0.4265900882182043 0.6340116212899263 0  0.4507112937933814 0.6077518488810902 0  0.4086514838062084 0.6052478192139245 0  0.5008782815600479 0.6008496974435468 0  0.5423525658047589 0.6295187939096042 0  0.5493062879736137 0.5826731166670753 0  0.5850291285143387 0.6165026612534393 0  0.5963102396102113 0.5696296104673483 0  0.6302632941394742 0.6029318501712146 0  0.6427649844966355 0.5556899827798412 0  0.677911992149248 0.5842784100760421 0  0.6907180174574492 0.547562021049983 0  0.6561769335161798 0.5201293089219255 0  0.6973406926106795 0.5168351684940224 0  0.6757896469068038 0.4865073848203897 0  0.627178852768588 0.4947796217567483 0  0.6413926674679603 0.4590028518951331 0  0.6891067288234273 0.4464683292401598 0  0.6601377821584133 0.4199066650514561 0  0.6111397780396715 0.4305794653198329 0  0.6264657157989502 0.396729927245337 0  0.580773545881239 0.4027824587245762 0  0.5999261543475186 0.3682539449755653 0  0.5487420473573064 0.369408848237582 0  0.5350056202948617 0.4059640033752307 0  0.50077162915972 0.3700209299926701 0  0.4873353767206217 0.4095054237600551 0  0.4518575724726042 0.3716625769771576 0  0.4397570192197294 0.4112922938074047 0  0.6633841
[...]
<PointData  Scalars="v"> 
<DataArray  type="Float64"  Name="v"  format="ascii">5.9654737626262313e-20  1.2758324328172021e-19  6.0322225489768286e-20  2.6145063215944613e-21  -1.0154709027233065e-21  -3.5085740051498987e-21  -3.5531662754166129e-22  -7.5537711932338794e-21  -1.4936358403529769e-05  -3.2814338956550367e-06  -7.2703636517624047e-20  6.0232447545671246e-19  7.3297471390483244e-19  -3.7155091765610174e-19  1.8533211501935032e-18  1.5721540034794736e-18  -8.7120970884514515e-19  4.1717303454690973e-19  -1.5062491486686108e-19  1.0195889027497014e-19  1.4838216196748347e-18  5.5134246994135804e-19  -4.9826176973824863e-19  9.1417580304774141e-19  -1.3493501841471014e-18  2.7574504429509877e-19  6.3480530372366964e-19  6.5337436353677505e-19  -2.6910013006142205e-19  3.9799345197934571e-19  3.8771439955785236e-19  2.4036761365030826e-19  -2.0007023276547575e-19  6.0963283569608599e-19  -1.6187262002039602e-19  -2.3733066393715850e-18  -2.2624259109472250e-18  1.0678122190011580e-18  1.2628301218779998e-18  1.0998453617050709e-18  -6.5853969742428097e-20  7.3713828518798233e-19  8.8515999208242515e-19  5.7587801495679237e-19  7.0172735592689755e-19  1.5619555847526501e-19  3.6851359568645540e-19  -1.6139170806830709e-19  1.6777844894505397e-20  -1.4316200541654183e-19  4.5918618990959377e-19  3.4419199922087336e-18  -4.2838721819071391e-18  -4.3465732663087548e-20  1.1460876430729248e-18  3.6966687985612801e-19  -6.9857050756356435e-18  5.8187910719135735e-19  8.7056288507793583e-18  1.0642651873483836e-18  -2.1361187005096901e-18  -6.5820274308794653e-19  6.5295901444455807e-19  -3.4230647019495742e-18  -1.3559721154831932e-19  -1.0168486568823295e-19  8.9041783708702002e-19  -9.9394811520083471e-21  1.7666512339284281e-18  2.9311429947651678e-19  -3.1144894659810213e-18  2.1336167442604599e-19  3.9543108197353935e-19  3.6806091254121992e-20  6.5274799055283968e-18  -5.5051307754458125e-18  -6.3651689870269439e-18  5.0166102513631701e-18  -6.0806480920414887e-19  -5.6044852911576009e-18  -5.1945163107460835e-18  3.1643350170839805e-18  -2.4786275867579250e-19  2.5364166650744421e-19  -8.0676066247552792e-19  -6.7565953162882769e-19  6.3727805702248690e-21  3.9119697955038976e-21  8.4284953326808951e-21  8.3821994593972470e-20  5.8620198842903253e-20  2.6888971154006593e-20  2.0184136119244789e-19  7.9554060371843688e-20  -2.6290108123020031e-20  -2.0394575314868479e-20  3.5173022730567103e-20  5.1559075276595395e-20  1.9192088857770349e-19  4.1297709700556594e-20  6.8752677509222219e-20  8.8306034470740638e-20  -1.3592244611725858e-19  -4.5503247192063212e-20  1.1158861660922093e-19  7.6636288524895885e-20  -1.7011623803412402e-21  -1.3249099224374304e-20  9.1869035253927372e-21  -1.9686223825266715e-21  8.4962601385087082e-21  4.7537274633780826e-20  6.0204582927798949e-20  2.0619503467345456e-20  -1.5427490090556326e-20  6.5657925826706233e-20  -8.4939242469295071e-20  -3.4565960586825975e-19  -2.8165403475901004e-19  9.7055644593005548e-20  2.1207939576120603e-19  8.1254163295525401e-20  4.0931633906628245e-20  8.9811692747736280e-20  7.6408916384301657e-20  8.4237800641499535e-20  8.3772768092694515e-20  4.6153234112612576e-20  2.7306503748092049e-20  -6.6070602001144900e-22  -1.1105002394155378e-20  4.1886330259992278e-21  -1.0363109284936762e-21  2.9540663023483947e-21  -3.4177354954782217e-21  1.5414315266356408e-20  7.7973369133794948e-20  6.0099411097935735e-20  -5.8172550162818467e-20  -1.5035666280104387e-20  5.6415611497590340e-20  6.8051254482282482e-20  3.0421115344576413e-20  -2.6410846205910696e-20  2.0821671617449077e-20  8.8871799876445107e-20  -8.9449079529065704e-20  -1.2988953562244057e-20  9.0864141203664250e-20  6.1440742208327331e-20  -1.4650084001941988e-20  -1.8457065923827390e-20  -3.2049530146327572e-21  9.9905235101671834e-23  1.6276796688155661e-22  1.0479195956468917e-21  -3.6610208660286948e-21  4.9563604037873714e-21  3.4125968658405285e-20  4.5248996089371230e-20  3.0698439476485106e-20  3.4053188023661389e-20  4.5537622779953217e-20  2.7315297651584082e-20  7.9206257438953166e-21  1.2779892542798345e-20  -1.5502617958883538e-20  -5.1302954837034584e-20  4.3197940615749498e-20  2.6862119966901870e-20  -5.9551847875409161e-20  -3.1854825520427040e-20  1.3025963384438403e-20  4.1928130020205385e-20  3.5722480358928957e-20  1.6027389274911399e-21  5.6622903712528733e-21  6.3035795923966568e-21  -8.8428522369245793e-08  3.9556844506231276e-06  8.6160386454381037e-06  1.3290896896944486e-05  1.5781955818405432e-05  1.7844405718541558e-05  1.9044646380455829e-05  1.9649347578466810e-05  1.9062783343964606e-05  1.8957349588398762e-05  1.9029108000284365e-05  1.9305584890635564e-05  1.9202487344834142e-05  1.9943746817559259e-05  2.1165248634480478e-05  2.2283470237660148e-05  2.3185982471993059e-05  2.3713693870722996e-05  2.3895146994858147e-05  2.3400296805035118e-05  2.0019470504497125e-05  1.7103886346383260e-05  1.3829833684913882e-05  1.0658392612534496e-05  8.8878908642055435e-06  6.5864389621360604e-06  5.2721324008565490e-06  4.5478761451547405e-06  4.1724373823267865e-06  3.2986794849794098e-06  3.4045909312157154e-06  4.8672698919908847e-06  5.8868471398535518e-06  7.4551183551790659e-06  1.0228091781503070e-05  1.2612898527148844e-05  1.5298677051650728e-05  1.7202237895159886e-05  1.8872673103864277e-05  1.9651648674471314e-05  1.9378802606262934e-05  1.8605906498780366e-05  1.7206078419119638e-05  1.5773357290995865e-05  1.5106958690145714e-05  1.4576552861404400e-05  1.4839566849857202e-05  1.5905647489454652e-05  1.6970275023148568e-05  1.9093384389430620e-05  2.1452958686125945e-05  2.2467014210947354e-05  2.2764664027338734e-05  2.1911223610095190e-05  1.9681610302476386e-05  1.6281784785188321e-05  1.1953102762924442e-05  8.1461444913008512e-06  4.1160500978965556e-06  6.1445239489771104e-07  -2.9083195536850725e-06  -5.5586456566535173e-06  -7.3569099958434633e-06  -8.5152519347070937e-06  -8.6916304401500106e-06  -8.5507602587073860e-06  -5.8405814557354463e-06  1.6564564517677015e-05  1.4345083275649120e-05  1.3167195291745402e-05  1.5423252133771213e-05  -1.0031029095653718e-05  3.6362935321861428e-06  1.8241642812054196e-05  -4.6714427916350000e-06  1.2643592729620030e-05  8.1604285086178219e-06  8.1155643493340535e-07  1.2055615953978622e-05  2.2563541795818070e-06  -9.0269416077744564e-06  -1.6334814346166627e-05  1.9156856740897418e-05  1.2117788606011555e-05  1.0545377025720038e-05  6.3379135957742044e-06  4.0718762668911939e-06  1.8157717847964626e-05  -1.7332057616689146e-05  1.5680858168529693e-05  1.9419760520123126e-05  1.5238487459371525e-05  -5.2747529318916719e-06  1.6471408641405360e-05  1.1005297899970827e-05  -1.2032946902844348e-05  -1.0263598794825413e-05  -7.5961908856800667e-06  -1.0881629238673492e-05  -7.8779436672947129e-06  -1.0813611138785164e-05  -1.4089183441228060e-05  -8.0409891381371363e-06  -1.2874213789694195e-05  -7.1044261824869072e-06  -1.6204613113683036e-05  -1.6365224236935349e-05  -1.5000656061893373e-05  -1.3233168979093081e-05  -1.0489886476476701e-05  -7.5613031614634810e-06  -3.4558527611207330e-06  2.4656343268059145e-06  5.3254465228677089e-06  3.6852601079548433e-07  7.0460891182532229e-06  4.6835423373563492e-06  -3.1299197549528127e-06  1.7901628502380265e-07  8.4307207065812899e-06  5.8250197030397057e-06  -2.4209667530864124e-06  1.3270664921029045e-06  -4.4817133061305714e-06  -1.0384514884876835e-06  -5.0763487013677753e-06  -8.1811901503435860e-06  -7.6658746973347387e-06  -1.0359331887038702e-05  -7.5487844487814878e-06  -8.8225953244282442e-06  -7.7979279277074211e-07  -4.1330349361678732e-06  -4.7565013699614301e-06  -5.4140707618012480e-07  -3.1355482000700240e-06  -1.6276153931269107e-06  -6.0142906935312804e-06  -1.2155896079097866e-06  -4.8024508631623647e-06  6.2782401296910110e-07  3.9114994362691022e-06  5.2212641414646625e-06  3.5001272234879841e-06  5.7918489244454896e-06  5.0684544543330093e-06  7.8115238386208353e-06  -9.0294639170665692e-06  2.3138207284749750e-06  4.8776941159996868e-06  -8.9184560434694385e-06  5.6103943068621923e-06  9.7247252056265775e-06  1.1015411297660000e-05  1.1134498085507799e-05  -8.0361031234713472e-08  1.1451200909586589e-05  -1.3401991898850562e-05  -3.8727167897539813e-06  -1.1796363227347663e-05  -1.6615781264519797e-07  8.5593212035764020e-06  -2.1284861098662334e-06  1.0582465674609728e-06  5.8178253350475310e-06  5.8828210767739921e-06  -4.3735177263333615e-06  4.0223827574810968e-06  3.6368658449386646e-06  -1.0259231376690871e-05  -9.4219662428386599e-06  9.5048068501780236e-06  9.8200616132169961e-06  1.3389965828310033e-05  1.6145491154115814e-05  -1.4439244103873538e-05  7.4031072405490420e-06  1.4475660828370258e-05  1.1073564291062047e-05  9.5164655126509521e-06  3.2733867994270807e-06  2.1479564535198736e-06  -2.3849478580884776e-07  -3.6585099260054299e-06  -2.3388714638359310e-06  6.6714301235157070e-06  1.1038642923675554e-05  3.4260935579423694e-06  -1.3270499896424174e-06  -1.6837831656334895e-06  9.1176920799629906e-06  4.4274789237200308e-06  1.0225783651072171e-05  8.2669365223739605e-06  1.2969134432144858e-05  1.3282503998920956e-05  1.0330957773990842e-05  1.3309607830165158e-05  1.5641174340647572e-05  1.2055641566996725e-05  1.2080813949449908e-05  -1.3814575210539641e-05  -1.3109154613087605e-05  -1.2661508673664308e-05  9.4663770542389502e-06  1.0836146181821467e-05  1.3546186559683177e-05  5.7419854086887189e-06  -4.6646940611395808e-06  -8.1842319237333444e-06  1.2457782892529542e-05  8.0743491955528421e-06  1.2757556284612111e-05  5.4994772551064905e-06  -1.3297910877275462e-05  1.2695529760560631e-05  1.3312324281547262e-05  -6.2194471713303829e-06  -2.3458341237180089e-06  -2.7974627534168624e-06  1.3936417177940261e-05  -5.1451574835801696e-06  1.4221274405039306e-05  9.7342368872525966e-06  -7.3732146808024924e-06  1.5687026306500483e-05  6.2780736170836356e-06  2.8105040119499376e-06  -1.2276574354747619e-06  -5.7228805016067883e-06  -7.0918910471566334e-06  5.2336330858177178e-06  1.3181000210467885e-05  1.1776845186088087e-05  1.0252783320400490e-07  -3.8724570279481118e-06  1.1657283449177727e-06  -4.7227794375761321e-07  1.4217391043340744e-05  9.9949391875376073e-06  9.2998174909682756e-06  7.9095715132974584e-06  1.7183525358517988e-05  1.4710302005777963e-05  -1.8173001699956735e-05  1.7722348062101375e-05  -1.3163580278784550e-06  1.6115344439190847e-05  -2.9584411131251740e-06  1.9354448864144649e-05  1.6839737159685459e-05  1.5817529846679414e-05  -1.3819178643528778e-05  1.6524482693241175e-05  1.9077541032323103e-05  1.4569148724349648e-05  7.3909818098684930e-06  9.4472249762083709e-06  4.5217850494372959e-06  1.3392502723035994e-05  -7.1313898705290440e-06  -4.1794781080489739e-06  -1.4607778543463246e-05  1.6061324827324588e-05  -1.2936809492382572e-05  -6.1150271089088636e-07  1.4177731823821930e-05  -8.2160167652896407e-06  -1.3341802050186040e-05  -1.3149365249797078e-05  1.6830166981520424e-05  2.2227230757448815e-06  8.9568814208578323e-06  -1.1127124034027524e-05  8.3430196616759175e-06  1.4666930582449915e-05  -1.2325825218305224e-05  1.6924825541359207e-05  2.0581553498170295e-06  1.5904068489617568e-05  -1.5680191916060669e-05  2.7076539618433718e-06  2.7454103707767665e-07  1.3163837458771241e-05  1.0417249662036874e-05  1.5910843346748297e-05  -5.2090046011119673e-06  9.7480752471181666e-06  -9.3219445555283474e-07  -8.5951377156793499e-06  9.8797733523287442e-06  -4.2397067791545356e-06  4.1546105298034145e-06  1.1913453281117181e-05  1.1677129127812486e-05  1.2196560103242718e-05  -1.4809735135037073e-05  1.4383481353488323e-05  6.4892197579924067e-06  9.2816161972963027e-06  1.3593977210550728e-05  -1.0993477641801234e-05  1.3571127602819254e-05  1.4601647088350296e-05  1.4999618716357692e-05  -2.1237910979620584e-06  -1.7354089916233189e-06  2.3344919230919466e-06  -6.5186678844156618e-07  1.5244848934684453e-05  4.8722906332632393e-06  -9.6495182767321494e-06  -1.5672746366378553e-06  1.2547098965801781e-05  3.3983980933177107e-06  1.3929793204302225e-05  9.6629619012052583e-06  -3.1815827748454830e-06  7.6419218653453553e-06  -6.0450448003652707e-07  1.7379083997066719e-05  1.6367491000210793e-05  -1.2285054098566083e-05  -1.2325315911230892e-05  1.1022295640883648e-05  -3.2976063427638970e-06  5.4999764522389848e-06  -3.6502042877004075e-06  1.1576068406755534e-06  7.4782037475202572e-08  -8.0788749812919359e-07  -7.4361481985851087e-06  1.1738805341428173e-05  -5.4487097707884916e-06  9.9679842065535138e-06  -1.3137117760549628e-05  -1.1696176109930768e-05  1.4473392999984274e-06  -1.3483105346498898e-05  -1.4568442084876128e-05  3.0635472970474007e-06  -1.1804573442338460e-05  -5.5048362066754906e-06  -1.4947171789783837e-06  5.6238083023138080e-06  -3.9653434658115122e-06  1.2743607874128357e-05  6.3855970510982151e-06  9.8590275446987572e-06  1.6436502516009242e-05  1.9786529466184617e-05  2.1140557421883805e-05  1.0882246361475435e-05  1.6501919595336386e-05  1.0654759980885659e-05  1.1234072280526738e-05  2.5979533600327122e-06  1.9005974241218635e-05  4.6135541728156936e-07  2.2818496795515798e-05  2.1147041495995516e-05  6.2850486375688513e-06  1.6242426111237578e-05  -6.6699002397276132e-06  3.8061293806394418e-06  5.9624717288433094e-06  4.9413868380466534e-06  1.8755907692646543e-05  5.2656918413840894e-06  5.6677576707200154e-06  1.1382258861362749e-05  7.7721731249459361e-06  2.1003801072308445e-05  6.5487965939436859e-06  1.9869804035382791e-05  5.7106178589421744e-06  5.4649411252524963e-06  7.2189914986623638e-06  -2.7656673460495171e-06  1.9042667589875652e-05  1.6541556861890638e-05  3.8286216653890653e-06  3.2077254095225524e-06  2.0244870035552739e-05  5.8087793347395715e-06  2.8923023193759084e-06  5.1339778259610104e-06  6.1589556216647867e-06  5.4341562041847239e-06  -4.9831723919068651e-06  2.8119413864205448e-06  8.0158688006150807e-06  1.5589521108286763e-05  7.1602361393949702e-06  4.1221096528726512e-06  3.7263680229437233e-06  1.6279830651780274e-05  8.8134529967292714e-06  7.7286489553467963e-06  5.2257570310688042e-06  4.7678626848250561e-06  7.2000663687561724e-06  3.8367193237875924e-06  5.6433834362537818e-06  7.9504477399915230e-06  4.6340737010106451e-06  4.8643469107383022e-06  2.3632124930090929e-06  3.0965453789883002e-06  1.5629064589618033e-05  1.5526425410454950e-05  1.5579258128530873e-05  1.5089601998606477e-05  1.5306598027005089e-05  1.4937062719126961e-05  1.3636162511562895e-05  1.5674855956880688e-05  1.4571885931149468e-05  1.5578773236318421e-05  1.7019664363947029e-05  1.3682495588693714e-05  1.5914209210121134e-05  1.7897137278888162e-05  1.7738663946594933e-05  1.9352604000114654e-05  1.6081027040182814e-05  1.9198100784164842e-05  2.0722618853901029e-05  1.9872955810602482e-05  2.1034950821782310e-05  2.2019478104560435e-05  2.1631253815459701e-05  2.2381502546254815e-05  2.0265412535003760e-05  2.1105137870179126e-05  2.1640651722658929e-05  1.9300034323199429e-05  1.8425797496831296e-05  1.9390727069935632e-05  2.1491295730862977e-05  1.8921323289075392e-05  2.1169248321595722e-05  1.8526455596064098e-05  1.8385699185255494e-05  1.8363862653044152e-05  2.0424502441687014e-05  1.8414683017933499e-05  1.6165272119516768e-05  1.7102077926681983e-05  1.5230460647959689e-05  2.2461152796562184e-05  2.2400066174673237e-05  1.4819903898542986e-05  1.7662674094391144e-05  1.4644284238133609e-05  1.7431806452540194e-05  1.4855804329837232e-05  1.7723698344300454e-05  1.5077761171059657e-05  1.7710102646937209e-05  1.5149567025148176e-05  1.7481198885497112e-05  1.5474052773119172e-05  1.7521735014935218e-05  1.5401951335586897e-05  1.7137918049026148e-05  1.5202841199719568e-05  1.6807138121061741e-05  1.5000310963821872e-05  1.6156768450386253e-05  1.4310413163337775e-05  1.5436359647372121e-05  1.5898684096434786e-05  1.5004928525528501e-05  1.4382930215850764e-05  1.3631427566242483e-05  1.3206449864836813e-05  1.1827349674357671e-05  1.0493474336549586e-05  1.2694347265319156e-05  9.5815278135749156e-06  7.9139086177848192e-06  1.0070659116860868e-05  1.2310870758494044e-05  1.0646322679414321e-05  7.4938958002251612e-06  5.4528444086733428e-06  1.1388148293663555e-05  4.9633522545922687e-06  2.1272656633744665e-06  3.6561848129042426e-06  1.1842909127002300e-06  3.0715343507241433e-06  8.1084724838604237e-07  -1.6573806314375581e-06  -1.8732039889009368e-06  9.9173480685766005e-07  -2.1395953124874103e-07  2.1063462652758440e-06  1.6367051665282949e-06  -9.7509120321247308e-07  1.7699800551237487e-06  3.7050774018228061e-06  4.9492881357273294e-06  5.9793540483187335e-06  7.6162685361753447e-06  6.4581757662421369e-06  9.8474491355363700e-06  9.9276688528775887e-06  1.2570760638676780e-05  1.2525428542001306e-05  1.4986170603504931e-05  1.4244617312902382e-05  1.6316459239532040e-05  1.7242759363692598e-05  1.8477523123655691e-05  1.6939475170838655e-05  1.8627526497999433e-05  1.9932021779892619e-05  1.6580612058863977e-05  1.9176238078022155e-05  2.0159095688090682e-05  1.8395614537055764e-05  1.9336170494939045e-05  2.0553347433759057e-05  1.6573547979660687e-05  1.4779996840695511e-05  1.3824628473579946e-05  1.7571193326234499e-05  1.6679999759220069e-05  1.8244722611728447e-05  1.5791561601095382e-05  1.9764712949419061e-05  1.8274659115209167e-05  1.6440601382947213e-05  1.0610786529822485e-05  1.9696838429461142e-05  1.7362771926509425e-05  1.5068342371077891e-05  4.8696990496008974e-06  1.0378908766004757e-05  -1.1238055913400109e-06  1.7573208063512789e-06  1.1892307354309627e-05  1.6604828935708553e-05  1.8465237626186191e-05  1.2043915924880140e-05  1.9418056923237086e-05  2.7364651817167696e-06  4.6782473025378551e-06  1.9781775022594190e-05  8.0576492411097763e-06  1.1482840032462477e-05  -4.0411655300354107e-06  -3.5539254067068143e-06  -1.0433882448772656e-06  1.6797361096062846e-05  1.5586763490051887e-05  1.5255907513784619e-05  1.4120708518124406e-05  1.3621753305075952e-05  1.2923132285888357e-05  1.1832384098572102e-05  1.2239165035244062e-05  1.1064910842404560e-05  1.1226538239298535e-05  1.0651614607289233e-05  9.5466631741890646e-06  9.1284184527034653e-06  1.0152609714343645e-05  9.4499014158109084e-06  8.1028803076503830e-06  9.1685320752648384e-06  9.9373232231774506e-06  1.0643305705483773e-05  9.6972780090298431e-06  1.1405168502284612e-05  1.1712357015660937e-05  1.2765192519195236e-05  1.2527693672485716e-05  1.3944118425235812e-05  1.3994563901215111e-05  1.5651808687278071e-05  1.5020242697057281e-05  1.6503377492453354e-05  1.7023987113565345e-05  1.7228433301021076e-05  1.7910465502775259e-05  1.7398972819642718e-05  1.6149076931018072e-05  1.8125486933225532e-05  1.6887909401045468e-05  1.7564344309183534e-05  1.8108200599711352e-05  1.5472029243506705e-05  1.0199925982269140e-05  1.1049360554551919e-05  1.1336210014707864e-05  1.5654309076558980e-05  1.6529671158225185e-05  1.7805816881114309e-05  1.7020649452779021e-05  1.7671403000865701e-05  1.5530273458810753e-05  1.5795649405754168e-05  8.4954648123771550e-06  9.2884449609680497e-06  1.0959842989057878e-05  1.8117623760480560e-05  1.8354218261962422e-05  9.2355827025458647e-06  4.4700845935954948e-06  1.7021925331699321e-05  -3.5466906869122826e-06  1.3982516997539075e-05  1.3129144688546538e-05  1.1438180179230093e-05  1.8089467675344370e-05  -2.9618093944206105e-06  1.4024455390686323e-05  1.8676435685077966e-05  1.8596393470497113e-05  1.9016423371925759e-05  1.2146199900390210e-05  1.0862414837127711e-05  -5.3176219639002892e-06  1.3951333130839077e-05  1.5536228827007996e-05  1.4111359852561199e-05  1.6966605273505182e-05  1.6483775219626436e-05  1.8984623149003494e-05  8.6582776999177376e-06  1.1432049994676501e-05  7.8287498996121591e-06  6.4261887111984783e-06  8.9046249832096296e-06  1.1400878655569548e-05  1.2584352822043888e-05  1.1321932462930585e-05  -5.4149936898275115e-06  7.7193339874066856e-06  9.4697795393063735e-06  1.16229349