<?xml version="1.0"?>
<VTKFile type="UnstructuredGrid"  version="0.1"  >
<UnstructuredGrid>
<Piece  NumberOfPoints="1151" NumberOfCells="2204">
<Points>
<DataArray  type="Float64"  NumberOfComponents="3"  format="ascii">0 0 0  0 1 0  1 1 0  1 0 0  1.1 -0.1 0  -0.1 -0.1 0  1.1 1.1 0  -0.1 1.1 0  0.5 0.5 0  0.5468420387957643 0.6038424941002144 0  0 0.9499999999997918 0  0 0.8999999999995836 0  0 0.8499999999996529 0  0 0.7999999999999998 0  0 0.7500000000003466 0  0 0.7000000000006934 0  0 0.6500000000010401 0  0 0.6000000000013869 0  0 0.5500000000017335 0  0 0.5000000000020587 0  0 0.4500000000018723 0  0 0.4000000000016644 0  0 0.3500000000014564 0  0 0.3000000000012483 0  0 0.2500000000010403 0  0 0.2000000000008322 0  0 0.1500000000006241 0  0 0.100000000000416 0  0 0.05000000000020799 0  0.04999999999989965 0 0  0.09999999999981467 0 0  0.1499999999997036 0 0  0.1999999999995579 0 0  0.2499999999994121 0 0  0.2999999999992664 0 0  0.3499999999991206 0 0  0.3999999999989749 0 0  0.4499999999988292 0 0  0.4999999999986943 0 0  0.5499999999988151 0 0  0.5999999999989468 0 0  0.6499999999990784 0 0  0.69999999999921 0 0  0.7499999999993417 0 0  0.7999999999994734 0 0  0.8499999999996051 0 0  0.8999999999997368 0 0  0.9499999999998684 0 0  1 0.04999999999989965 0  1 0.09999999999981467 0  1 0.1499999999997036 0  1 0.1999999999995579 0  1 0.2499999999994121 0  1 0.2999999999992664 0  1 0.3499999999991206 0  1 0.3999999999989749 0  1 0.4499999999988292 0  1 0.4999999999986943 0  1 0.5499999999988151 0  1 0.5999999999989468 0  1 0.6499999999990784 0  1 0.69999999999921 0  1 0.7499999999993417 0  1 0.7999999999994734 0  1 0.8499999999996051 0  1 0.8999999999997368 0  1 0.9499999999998684 0  0.9499999999997918 1 0  0.8999999999995836 1 0  0.8499999999996529 1 0  0.7999999999999998 1 0  0.7500000000003466 1 0  0.7000000000006934 1 0  0.6500000000010401 1 0  0.6000000000013869 1 0  0.5500000000017335 1 0  0.5000000000020587 1 0  0.4500000000018723 1 0  0.4000000000016644 1 0  0.3500000000014564 1 0  0.3000000000012483 1 0  0.2500000000010403 1 0  0.2000000000008322 1 0  0.1500000000006241 1 0  0.100000000000416 1 0  0.05000000000020799 1 0  -0.1 1.05000000000004 0  -0.1 1.000000000000079 0  -0.1 0.9500000000001624 0  -0.1 0.9000000000003032 0  -0.1 0.850000000000444 0  -0.1 0.8000000000005848 0  -0.1 0.7500000000007256 0  -0.1 0.7000000000008665 0  -0.1 0.6500000000010508 0  -0.1 0.6000000000012352 0  -0.1 0.5500000000014196 0  -0.1 0.500000000001539 0  -0.1 0.4500000000014195 0  -0.1 0.4000000000013 0  -0.1 0.3500000000011588 0  -0.1 0.3000000000010178 0  -0.1 0.2500000000008986 0  -0.1 0.2000000000007579 0  -0.1 0.1500000000006174 0  -0.1 0.1000000000005272 0  -0.1 0.05000000000040083 0  -0.1 2.671196597248127e-13 0  -0.1 -0.0499999999998666 0  -0.0500000000000906 -0.1 0  -1.730560139634463e-13 -0.1 0  0.04999999999975802 -0.1 0  0.09999999999961506 -0.1 0  0.1499999999994613 -0.1 0  0.199999999999302 -0.1 0  0.2499999999991446 -0.1 0  0.2999999999990088 -0.1 0  0.3499999999988296 -0.1 0  0.3999999999986936 -0.1 0  0.4499999999985143 -0.1 0  0.4999999999984002 -0.1 0  0.5499999999985247 -0.1 0  0.5999999999986493 -0.1 0  0.6499999999987955 -0.1 0  0.6999999999989417 -0.1 0  0.7499999999990659 -0.1 0  0.7999999999992116 -0.1 0  0.8499999999993573 -0.1 0  0.8999999999994526 -0.1 0  0.949999999999584 -0.1 0  0.9999999999997226 -0.1 0  1.049999999999861 -0.1 0  1.1 -0.0500000000000906 0  1.1 -1.730560139634463e-13 0  1.1 0.04999999999975802 0  1.1 0.09999999999961506 0  1.1 0.1499999999994613 0  1.1 0.199999999999302 0  1.1 0.2499999999991446 0  1.1 0.2999999999990088 0  1.1 0.3499999999988296 0  1.1 0.3999999999986936 0  1.1 0.4499999999985143 0  1.1 0.4999999999984002 0  1.1 0.5499999999985247 0  1.1 0.5999999999986493 0  1.1 0.6499999999987955 0  1.1 0.6999999999989417 0  1.1 0.7499999999990659 0  1.1 0.7999999999992116 0  1.1 0.8499999999993573 0  1.1 0.8999999999994526 0  1.1 0.949999999999584 0  1.1 0.9999999999997226 0  1.1 1.049999999999861 0  1.05000000000004 1.1 0  1.000000000000079 1.1 0  0.9500000000001624 1.1 0  0.9000000000003032 1.1 0  0.850000000000444 1.1 0  0.8000000000005848 1.1 0  0.7500000000007256 1.1 0  0.7000000000008665 1.1 0  0.6500000000010508 1.1 0  0.6000000000012352 1.1 0  0.5500000000014196 1.1 0  0.500000000001539 1.1 0  0.4500000000014195 1.1 0  0.4000000000013 1.1 0  0.3500000000011588 1.1 0  0.3000000000010178 1.1 0  0.2500000000008986 1.1 0  0.2000000000007579 1.1 0  0.1500000000006174 1.1 0  0.1000000000005272 1.1 0  0.05000000000040083 1.1 0  2.671196597248127e-13 1.1 0  -0.0499999999998666 1.1 0  0.5712098186664688 0.6003862373060537 0  0.5935613260883589 0.5902730138048549 0  0.6111152669116898 0.5733412772077402 0  0.6185327869428948 0.5499605698367933 0  0.6217286739485473 0.5255694273524104 0  0.6220883423742515 0.5009393374727664 0  0.621072546179622 0.4763315468828737 0  0.6183254683567365 0.4518566124585338 0  0.6137402244899754 0.4276587885419189 0  0.607177803316338 0.4039236432327633 0  0.5984849088248901 0.3808914461466409 0  0.5869565582240364 0.3591366556831325 0  0.5710333451342225 0.3404579943073382 0  0.5506212170666349 0.3268791184744827 0  0.5263745535650876 0.3239059323519322 0  0.5020390707947576 0.3273933358429911 0  0.4785400873100983 0.3347726612747341 0  0.4556082127028601 0.3437605607822299 0  0.4331574576047951 0.3538931572976604 0  0.4111351244028609 0.3649279994221022 0  0.3895020985595616 0.3767090256678314 0  0.3682216900723134 0.3891164056152366 0  0.3472836128374513 0.4020927618205686 0  0.3267324008274736 0.4156734289442793 0  0.3065875638342998 0.4298497198868857 0  0.2869386059178276 0.4447053260059884 0  0.2679800895054396 0.4604317751811038 0  0.2503547985192708 0.4776275129090374 0  0.2381052761561069 0.4983086337002746 0  0.2436121532278397 0.5219534261996757 0  0.2624169068777597 0.5374024408201228 0  0.2840456132170432 0.549182640771239 0  0.3065217707149645 0.5592594522986193 0  0.3294866245350873 0.5681657242186172 0  0.3528252554122139 0.5760420921679701 0  0.3764506993554335 0.5830136282044219 0  0.4003196066101556 0.5890993842378511 0  0.4244020829059968 0.5942750694308491 0  0.4486684489430335 0.5985051477349542 0  0.4730847335354357 0.6017599968066301 0  0.4976232456852311 0.6039023292827704 0  0.5222396972442593 0.6047344724688982 0  0.3705689721064014 0.5595232555742566 0  0.3689311434826437 0.4138147200509992 0  0.573344806470634 0.3803604332192598 0  0.3062213094095187 0.4542514910649519 0  0.4967053554382663 0.3488836961688906 0  0.5736529602107714 0.5760294443983732 0  0.4318324209951896 0.3780002216333248 0  0.418044316126483 0.569622174798123 0  0.325968163783941 0.5436817661062786 0  0.5950937033680317 0.4435900110058402 0  0.6013059260176603 0.4892669263300977 0  0.2831074838075158 0.5241045468412097 0  0.5995394232527755 0.5353574830289487 0  0.5346937159135208 0.5827382783494972 0  0.463015234229436 0.5776030901141064 0  0.5356976009989873 0.3470016983964198 0  0.2789361559582537 0.4846895204658476 0  0.2619086323423328 0.5061887696842383 0  0.389730798678828 0.4009453569040081 0  0.39078901474773 0.4255775170906242 0  0.3697483114060075 0.4386812043146038 0  0.3916456663005409 0.4504889320710105 0  0.41248862230221 0.4372994243332096 0  0.3695208420780638 0.4641620783119821 0  0.3932605609498379 0.4766418148996048 0  0.3720300980045952 0.4951302516961889 0  0.3994488913595314 0.5050330066492826 0  0.424540968831724 0.4848593888756293 0  0.4232753324649854 0.5188003967384851 0  0.4038419205166399 0.5313158064085896 0  0.3472970503225697 0.4792902816836093 0  0.3466804755085399 0.5049481470894934 0  0.3242858524586388 0.4915379665891451 0  0.3631619646853694 0.5177933540839107 0  0.3246865222577653 0.5180243047799677 0  0.3013583487479403 0.5022375139219033 0  0.422850070713433 0.5445095350265062 0  0.4450385961640829 0.534985471391337 0  0.4484736828634931 0.5056176378180288 0  0.4571543716207326 0.4716658301511558 0  0.5001924377728352 0.4516659013476029 0  0.451320289006594 0.4295667750720741 0  0.4948918212544301 0.415190680785084 0  0.5445470721477268 0.4748602785331887 0  0.5353339041898733 0.5186208939208087 0  0.541358368399174 0.4360426048923899 0  0.4422278306594647 0.5595718525325524 0  0.4655176262610892 0.5506667959803668 0  0.4864941259656413 0.5650708553344386 0  0.4110640612581082 0.4129409396668517 0  0.3480857511621262 0.4528822406110771 0  0.4892405849228803 0.5391524404918422 0  0.5087580515846462 0.5551687280444053 0  0.5090953267128461 0.5802583858931187 0  0.5136300049759922 0.5316160504425697 0  0.5335317690544148 0.5434292947763416 0  0.5589355869836142 0.532917550566366 0  0.5618895853655463 0.5071626236943003 0  0.5516270259935367 0.5617614072670913 0  0.3458583185520548 0.5295839243614563 0  0.3039317739561657 0.4777657559743155 0  0.3483510478302948 0.4268098934754451 0  0.5790826894104997 0.5508816869959874 0  0.3928523915926486 0.5666863517475454 0  0.4535373542076626 0.3675178907460496 0  0.4517918163489164 0.3897613672328567 0  0.4720321600979451 0.3796330959369865 0  0.410810523110067 0.3890977223878703 0  0.32687077158127 0.4414368236495536 0  0.3481754521442478 0.552731165168765 0  0.304281317088195 0.5327483707865363 0  0.5803061965863116 0.5215417024745814 0  0.6002384062619479 0.4662783464195888 0  0.5794517609408718 0.4594675967361072 0  0.573431438841733 0.4354030831311104 0  0.5903984346301254 0.4200954440411387 0  0.5672261525843356 0.4111318492785929 0  0.4741163146855578 0.3572341057973639 0  0.4315790679213094 0.4233902103764725 0  0.6012628058095741 0.5121755356395306 0  0.4113960495868416 0.4596652648717536 0  0.4350444295498955 0.4490367641793135 0  0.430839376713131 0.4006041715452764 0  0.4701991591619487 0.5215431000957677 0  0.5873264211652647 0.3992805631836792 0  0.5491851265515217 0.3910216199507236 0  0.5518461460013886 0.3666171795249308 0  0.529623638149091 0.3755222881477689 0  0.5272378926010178 0.3981975274586333 0  0.5106327032215415 0.3826577880508925 0  0.54
[...]
<PointData  Scalars="v"> 
<DataArray  type="Float64"  Name="v"  format="ascii">3.0062837017929555e-20  9.6750804224894458e-20  1.8433270617833021e-20  2.9677987540989325e-20  -2.5482918488481615e-21  -1.4422170955399142e-21  -1.2250045109816119e-21  -5.6914385762897015e-21  2.4109250458994796e-02  2.2842975392184994e-02  -4.1533150004353722e-20  5.8684910719092265e-19  8.5025909754620466e-19  -5.1034693107346451e-19  1.6063635232763482e-18  8.0870279377301917e-19  -6.4288117073540278e-19  1.9137262780829085e-19  -7.7206632371679142e-20  1.5485247693588492e-19  1.7537937197256796e-18  6.1930708117877848e-19  -5.8846872140338873e-19  1.4138338540142440e-18  -6.4094252744151945e-19  1.2850444524323019e-19  4.3316728340297024e-19  5.3211278655559005e-19  -1.6838312273452787e-19  4.0159049874628832e-19  2.7607952878433656e-19  -4.9931904626569331e-20  1.7640294386445794e-19  5.5365103137741285e-19  1.3268082740379771e-19  -1.6830530459917159e-18  -1.5950876136611889e-18  6.2823265867620127e-19  7.2723832518569730e-19  1.1997717309743506e-18  6.5610478980424095e-21  5.5520623848476594e-19  6.5335740202534543e-19  8.9713798422579801e-20  6.5670768938869858e-19  -3.4745661668010279e-20  1.2061417291355317e-19  -1.1885844100509251e-19  -7.4739564511692898e-20  2.3311235074669433e-20  1.3670118732192196e-19  3.0922978312955094e-18  -4.2113392367690229e-18  1.9065072107096941e-19  2.7475687836808808e-19  3.7310366761929877e-19  -8.1566403257376598e-18  -4.1733134040794238e-19  8.1490196169871594e-18  5.5346587569074400e-19  -1.0788255713454118e-18  3.6334936943156616e-19  2.9320159385648866e-19  -3.6575373160512318e-18  1.2855752428484856e-19  -1.2570235040290064e-19  8.8391124699792807e-19  -3.4267534103957307e-20  2.0350795927328108e-18  2.4109632068569317e-19  -3.5218502351385814e-18  -8.8865331097979867e-20  3.5727869736420928e-19  2.7232958660350533e-19  6.4848718000152324e-18  -6.1283812861077498e-18  -6.5032450534809196e-18  5.7674370352748740e-18  4.6165166701580506e-20  -5.2058605704760477e-18  -4.6429877887644909e-18  3.3521347295643499e-18  1.8618821116289903e-19  1.0409934725332547e-19  -8.4341079924795078e-19  -5.8424162718827640e-19  4.8372850184444326e-21  3.0370713408037509e-21  6.1574962991986461e-21  8.9289951158973371e-20  6.5866589587046376e-20  2.0558900389537833e-20  1.4195167983383438e-19  1.0120573689418330e-20  -3.0406518186846537e-20  -2.0967765601034868e-20  2.9057949194566480e-20  5.2061534898340045e-20  2.3218358151348144e-19  4.8805514599313633e-20  6.3007843585884680e-20  1.7099438344234183e-19  -3.7454839376113319e-20  -2.7052287567662712e-20  6.8534692414319221e-20  6.7451446347454987e-20  4.1428262724375060e-21  -1.1461673244980216e-20  6.5217650633579291e-21  -3.0994960923697709e-21  6.4202399757721171e-21  4.7496967199561942e-20  3.7382598905028777e-20  7.2867763859735572e-21  8.2288793592378830e-21  7.7754332617688485e-20  -5.0247177333341290e-20  -2.3042321501964440e-19  -1.9764065411945420e-19  3.4477508368883651e-20  1.2400755542168732e-19  9.2400067473632426e-20  5.1585290360582018e-20  6.7656251315837397e-20  3.9737557866642007e-20  4.0295762242472012e-20  6.0845131584186879e-20  2.2604137965588130e-20  1.6776949189585641e-21  -2.3032602535255082e-21  -4.0101063788691983e-21  3.1879889869860440e-21  2.1718619354895268e-21  1.3143131856233745e-22  -1.0937038861707678e-20  9.7517101661813043e-21  3.5395527076051203e-20  9.3692457794876975e-21  -4.6974163826511013e-20  1.2373325633630174e-20  4.8422655663569434e-20  5.3397219995995780e-20  -2.0276912191473216e-22  -1.7988285470386595e-20  5.0730251453858087e-20  5.6969903591618227e-20  -7.7435433222801435e-20  3.3188991994249383e-21  5.0369189014573549e-20  1.9173297346575228e-20  1.2457687448505278e-21  -7.6999352159018217e-21  -8.9519316915668081e-21  3.1780187638244093e-21  3.3532406150204282e-22  1.7273618531720646e-21  -1.7648444828501547e-21  7.3375753636735778e-22  3.0916814796828348e-20  2.9002711651607885e-20  -1.7634002400046090e-20  -8.0732828205898313e-21  3.2560533172442406e-20  4.6220729556228385e-20  2.1883932764429077e-20  2.6686815859992635e-20  -2.3774634142218532e-20  -6.1680180746715777e-20  1.4820552359810873e-20  -9.3342697551799784e-21  -7.2673327544021930e-20  -7.9306255442751491e-21  2.0359715448723347e-20  2.0993348119066839e-20  3.0302518887907936e-20  5.6550215776451186e-21  4.1427541228731107e-21  4.7179628410711874e-21  2.2724346746308317e-02  2.2626314017042085e-02  2.2600067970179993e-02  2.2689740411743604e-02  2.2764619068737314e-02  2.2763891376953851e-02  2.2656401197497834e-02  2.2449196109977969e-02  2.2149559110960244e-02  2.1758285825435347e-02  2.1286763491902984e-02  2.0750292908670191e-02  2.0251245521044851e-02  1.9861066296276902e-02  1.9764720327441872e-02  1.9866167925250387e-02  2.0015609630494140e-02  2.0135057238986596e-02  2.0187540046816152e-02  2.0155071444887689e-02  2.0026737379463200e-02  1.9795121068634125e-02  1.9450827923272376e-02  1.9005714589835170e-02  1.8462845255183158e-02  1.7819158306121102e-02  1.7094041093197728e-02  1.6343839759380252e-02  1.5819140002134087e-02  1.6153447472833933e-02  1.7100011439654474e-02  1.8094273492256868e-02  1.9017990778091583e-02  1.9850413148956299e-02  2.0600992876141914e-02  2.1222766481522014e-02  2.1759982774793567e-02  2.2188073751259980e-02  2.2514209017361168e-02  2.2740845197432625e-02  2.2866698005298065e-02  2.2901140970540430e-02  2.1567560952476635e-02  2.0716054054763618e-02  2.1845821534419378e-02  1.9107731880675122e-02  2.1019512293578988e-02  2.3352434955830000e-02  2.1282285378186976e-02  2.2676269361178815e-02  2.0149259175513357e-02  2.2994192032425580e-02  2.3368226341696923e-02  1.8388429442869163e-02  2.3394427031185525e-02  2.3530616991860286e-02  2.3304498266109454e-02  2.0991082852165454e-02  1.8139114890171538e-02  1.7397875447788810e-02  2.1003463694336089e-02  2.1517893618420332e-02  2.1154381414735756e-02  2.1927944267917131e-02  2.2228459266422491e-02  2.1472864809979175e-02  2.2285534352728238e-02  2.1792405579100612e-02  2.2583377811943878e-02  2.3092794973088235e-02  2.3120340508976763e-02  2.2643245313698327e-02  2.0872232754699519e-02  2.0959644081482900e-02  2.0062050418117604e-02  2.1534028206477811e-02  2.0142391570403997e-02  1.9174688843360002e-02  2.3000468030053303e-02  2.3459562093161229e-02  2.3583753366477164e-02  2.3524130137769127e-02  2.3693462759071367e-02  2.2790421732448444e-02  2.2941346877614163e-02  2.3890397170645786e-02  2.4111012142746004e-02  2.3396785420756953e-02  2.3231668421090947e-02  2.3635318291550935e-02  2.3683626583387938e-02  2.1742361604388229e-02  2.0658875490258383e-02  2.3942526770534361e-02  2.3895090197075024e-02  2.3586611106719800e-02  2.4083929903472454e-02  2.3981306595634213e-02  2.3904820562555561e-02  2.3929348194744821e-02  2.3734916900126111e-02  2.0938492694655003e-02  1.9180444790414322e-02  2.0312288197287934e-02  2.3583907823855704e-02  2.2119730753406532e-02  2.1282596694407508e-02  2.1889335837989538e-02  2.1832424259659883e-02  2.1193326575088964e-02  1.9775905776889605e-02  2.0900782272976710e-02  1.9298613386230443e-02  2.3724750408087174e-02  2.3205734235061688e-02  2.3424133724579001e-02  2.3130467557267682e-02  2.2636995590973878e-02  2.2700838380386234e-02  2.1164808406903053e-02  2.2352977918181166e-02  2.3427303050277140e-02  2.2539416085544210e-02  2.2887957136192412e-02  2.1845287081692703e-02  2.3854803709560491e-02  2.2196474477268510e-02  2.2311137987179333e-02  2.1581158583846224e-02  2.1925427436797641e-02  2.2556749207808636e-02  2.2124349118732661e-02  2.2883837464743609e-02  2.1391712083593539e-02  2.3117485590504475e-02  2.3535644975589347e-02  2.3758353295236772e-02  1.9997202615735683e-02  2.2409837600038077e-02  2.2961195190467545e-02  2.3219133939227997e-02  2.3382698462035747e-02  2.3384702320391786e-02  2.3676713131401732e-02  2.3781922995730224e-02  2.1597494960267260e-02  2.2922909418340767e-02  2.3978876378286593e-02  1.8297579782684745e-02  1.8434322069727074e-02  2.3804151752588619e-02  2.2163100836206397e-02  2.1680708786849124e-02  2.3210595827994191e-02  2.4065328003562036e-02  2.2416438813405937e-02  2.3864202327852052e-02  2.3524840061717244e-02  2.0755567677229171e-02  2.0925505044938425e-02  2.2316169595479218e-02  2.2549174880195064e-02  2.1199044227946356e-02  2.3185137465691907e-02  2.2628448349961725e-02  2.3144277045583809e-02  2.2138328615418566e-02  2.2181533295831248e-02  1.8975844712965970e-02  2.1124641899766414e-02  2.2259232875374093e-02  1.8640267293517667e-02  1.9484390224685660e-02  2.0554859470207815e-02  2.2394715453696652e-02  2.1864914046274195e-02  2.2316383760262539e-02  1.9437092728988893e-02  1.9470180629110958e-02  2.0912839570454509e-03  1.7755310970618882e-03  2.4257368580845123e-03  1.6799589591226738e-02  2.4661012406868390e-03  1.8946051201771943e-03  3.1583970665370119e-03  2.2834008285916464e-03  3.0841855923097704e-03  2.1833137380420802e-03  3.0396901426434178e-03  3.2752459861265983e-03  2.3388317218245320e-03  1.9158986517633852e-02  2.7156670256726937e-03  2.8131549146900177e-03  2.2258801742485221e-02  1.7224594318466756e-02  3.5556412674970276e-03  2.5341075995654739e-03  2.2501021026575991e-02  1.5856613940777187e-03  1.6270889375138936e-03  1.5696294212445194e-03  2.9597368497432850e-03  3.2896898460508090e-03  1.6020299479063361e-03  2.8792200413302852e-03  1.7045694863409774e-03  1.2519227795019469e-03  1.2728513539375294e-03  1.2210613701827101e-03  8.2445666561199076e-04  1.9026175912059955e-02  1.8565891784322726e-02  1.8098663707710259e-02  1.7400569457148966e-02  1.7862384792175705e-02  1.6426167132175755e-02  1.6853500453222845e-02  1.6815713329773552e-02  1.5217830360016518e-02  1.5562757942759547e-02  1.3777068742477949e-02  1.4023476372698851e-02  1.5685700193525404e-02  1.4041910920756656e-02  1.5947334801875174e-02  1.3835284651076732e-02  1.5329911371507333e-02  1.2227917941929570e-02  1.3236288769056227e-02  1.4530806284758552e-02  1.3295878130616912e-02  1.2171968621541256e-02  1.6578424915141953e-02  1.5659955830851984e-02  1.2290875783865386e-02  1.1030873303561999e-02  1.7661581371147581e-02  1.6624620310360504e-02  1.4418929154470473e-02  1.5228773995269675e-02  1.7379658794636630e-02  1.5867447688648704e-02  1.7894594623817182e-02  1.6284221510067233e-02  1.8182992486416933e-02  1.6465093271419096e-02  1.8253810048490349e-02  1.6420932334253922e-02  1.8042519012889783e-02  1.6138487092426775e-02  1.7614718274999414e-02  1.5621006026541239e-02  1.6896404656395497e-02  1.4841622732491705e-02  1.5915555769421566e-02  1.3793487536462900e-02  1.4687507819111476e-02  1.2483975729019287e-02  1.3147370729949436e-02  1.5264891101643174e-02  1.3489114253257906e-02  1.5500871044219775e-02  1.3451694647443800e-02  1.3513270636330999e-02  1.5428493863849481e-02  1.0955988299158203e-02  1.3274471526572162e-02  1.5085059454379804e-02  1.0218689056890447e-02  1.4388760690129820e-02  1.4389122970718735e-02  1.7131156368728837e-02  1.7145983104298601e-02  1.6695875471856199e-02  1.4504558201275655e-02  1.6042336971744172e-02  1.3724706020321328e-02  1.5202922582618589e-02  1.7357017034680414e-02  1.6422907001333337e-02  1.4214946867487276e-02  1.5342579099814077e-02  1.7401162873053461e-02  1.6214022227403653e-02  1.4101822177600044e-02  1.4887729193578539e-02  1.2726598770509103e-02  1.3407947742521303e-02  1.5710369493203868e-02  1.3826704780835822e-02  1.1804020735877014e-02  1.2022993531522298e-02  1.3832725024360542e-02  1.1939204995368755e-02  1.0070979454068566e-02  1.3556594187174722e-02  1.1515013673654742e-02  1.2949589665018892e-02  1.0777612393966131e-02  1.2038839123160920e-02  1.8078274512569690e-02  9.3993863546514445e-03  9.9018995618022614e-03  1.5447869809807424e-02  1.1475226265119048e-02  1.2829417147115718e-02  9.7467571486506751e-03  1.0835501306752596e-02  8.7199849826865381e-03  1.8618773693494069e-02  1.1754683243572529e-02  1.0356917261682894e-02  8.7092188683262992e-03  1.2033908025702100e-02  1.1126054853842859e-02  1.8872599868464703e-02  7.9487942264317747e-03  1.8384113261483159e-02  1.9145052061691700e-02  9.1528783965291668e-03  1.9202183839744931e-02  1.9672419419740215e-02  6.5444877484776313e-03  1.4373812194272173e-02  1.9789901011541846e-02  7.2801157432382723e-03  6.9859310793699983e-03  1.7544211710434274e-02  1.5946301567621477e-02  1.6785255738751462e-02  1.4923402558819708e-02  1.5731187683130868e-02  1.3840846267298902e-02  1.4408094864777747e-02  1.2957803884326441e-02  1.2418617911167818e-02  1.2866767750473528e-02  1.4853634229868656e-02  1.3237381999242853e-02  1.5067138942369952e-02  1.3413699093974038e-02  1.5092183214539860e-02  1.3386537328428566e-02  1.1637321376059585e-02  1.1560478227060232e-02  1.3172720888596038e-02  1.1252285314913775e-02  1.2660206964534597e-02  1.0676342768136648e-02  1.1868634374484958e-02  9.2956531828462322e-03  9.8682036292830119e-03  1.0784581290236317e-02  1.2853362438239906e-02  1.1503688076033977e-02  9.7625432236928631e-03  1.4491407717039115e-02  1.1338225219163674e-02  9.4160806741607830e-03  9.9379185610989941e-03  1.2443121229811858e-02  1.0583822568667094e-02  1.2974587241916281e-02  1.0961232929750275e-02  1.6672398768536215e-02  8.1254834235378846e-03  1.2847736292835086e-02  1.1112092285810398e-02  1.5080721910272628e-02  1.5391300624772558e-02  1.4238145500119702e-02  6.7948409322808583e-03  1.8919944705129546e-02  7.1805451015226956e-03  8.1665743332317835e-03  1.8307321448035884e-02  8.3961320181197112e-03  9.6642553390333275e-03  2.0414673986318202e-02  2.0401374004226907e-02  1.9580589883768477e-02  1.9864278807845994e-02  1.8861300194406974e-02  1.4472996033822585e-02  1.4824765901186072e-02  1.9842800481480086e-02  1.4354424884275236e-02  1.6560349656788136e-02  1.5243459280364068e-02  9.1866522159301817e-03  7.8116396743879895e-03  1.8577474974617609e-02  7.2541919942553960e-03  6.3802515405631498e-03  7.4203704191983903e-03  5.1607564860858346e-03  6.0293950484336650e-03  1.7421473162250442e-02  8.0445500369910605e-03  6.3645258054104816e-03  8.2719267895255931e-03  4.5755960651349620e-03  6.3099644697250691e-03  8.1176136621088808e-03  2.2080921656632023e-02  2.1636017913062296e-02  2.1460589698797303e-02  2.1685007292290195e-02  2.0920841320294783e-02  9.2985390194874964e-03  8.3264992249341106e-03  2.0556158551128814e-02  2.0009175328187492e-02  2.0876596528176267e-02  8.8644886287717970e-03  8.8944377467239724e-03  1.0120264175143652e-02  7.0415167802541758e-03  2.0872687073810989e-02  1.9985742615278499e-02  5.1203427826358935e-03  8.8925694129278667e-03  6.4353744146429517e-03  7.3694419959977895e-03  2.1166075608556469e-02  2.1557774538483541e-02  5.6842313004564250e-03  1.0170441836896370e-02  1.3094269661170268e-02  1.2821700117550244e-02  7.1669899530098962e-03  8.1798866567321174e-03  8.1075595715416541e-04  8.7785562484932634e-04  8.2943691245193597e-04  9.7247436859344283e-03  7.7751426909877866e-03  7.8608139440595626e-03  5.9371813127179658e-03  6.0410909544566039e-03  7.6666130793110847e-03  1.9729563114846891e-02  1.1425528744405380e-02  1.8130462707381497e-02  1.7746671002537583e-02  1.8026272147108474e-02  2.1277963081896237e-02  4.9790853584353745e-03  4.5898813088794633e-03  1.8881204261940340e-02  4.9612920230279675e-03  6.9951207873987292e-03  1.9956973098862317e-02  2.0802508255063260e-02  1.9096094640439772e-02  1.9692676249698525e-02  2.0703452025442468e-02  1.2030110269103944e-02  1.0243588208170982e-02  1.0917308898455051e-02  8.1267857490017019e-03  8.7044644592671992e-03  1.0207033394261147e-02  8.2734082988958537e-03  5.9445961911119777e-03  7.5985828787841058e-03  4.3653053563938622e-03  4.7128824343251226e-03  1.1475029711127439e-02  9.1486756061454726e-03  4.5840236614658235e-03  7.9111976658053570e-03  5.1296412740414916e-03  4.0011210340856768e-03  2.1691697735354575e-02  2.1980882699422472e-02  1.3235911613883548e-02  1.4614446543030469e-02  1.0531939667245180e-02  7.6945418393978247e-03  6.5676572285295479e-03  6.5218697709405679e-03  1.2672668425558635e-02  1.4255580544251618e-02  1.4794293453481027e-02  1.5728671381442339e-02  1.5619565292856706e-02  1.6719534304882377e-02  1.6618695906808412e-02  1.7542441552115345e-02  1.7398742294012576e-02  1.6238368995061432e-02  1.7134404790725401e-02  1.5861007006157033e-02  1.6696954555605298e-02  1.7870582200200252e-02  1.8986501523135135e-02  1.8126734478861421e-02  2.1474026832101718e-02  2.1569315009070271e-02  2.1012167355141498e-02  3.4389118724961571e-03  3.4879856172568727e-03  6.6377858141921540e-03  1.4234611339986701e-02  1.0395502107812586e-02  6.4402494005576993e-03  4.1188217797457948e-03  1.8167275171924506e-02  1.8657072377033412e-02  2.1362097726022340e-02  4.9002630068222608e-03  6.1544532474540085e-03  4.9884839947166885e-03  6.8248329247534122e-03  9.3344566665461443e-03  8.4575280979599481e-03  5.8313946775030582e-03  7.4597874748345326e-03  1.0099795782349551e-02  8.9591938608113240e-03  1.4987845452638577e-02  1.6848842320710610e-02  1.7138728676135181e-02  1.8326257190855792e-02  1.8551078099770493e-02  1.9567609777293497e-02  1.8007528251133102e-02  1.9212503761475729e-02  1.9737140052153226e-02  2.0123095682768252e-02  1.6161423718822600e-02  1.7275636048516788e-02  1.7218739458590312e-02  1.7862183354106637e-02  5.8150629092440257e-03  7.5367121476089633e-03  1.6082208819346768e-02  1.9816854434452139e-02  2.0661409287386519e-02  2.0160832725572109e-02  2.1217144740042403e-02  2.0796286777907305e-02  2.0975576749327186e-02  2.1165928770979874e-02  2.1755402315746193e-02  2.1598759243496860e-02  1.9786664482020939e-02  1.9615424557374854e-02  1.8565477188296108e-02  2.9302159929945476e-03  3.0263002961231455e-03  1.7538251565241598e-02  1.1089731553895641e-02  1.4037855080351509e-02  2.1098003955688147e-02  1.6408338936116901e-02  2.1518951057554532e-02  1.6740326162825087e-02  1.8761870724494260e-02  1.9195369490908300e-02  2.2123658568902894e-02  1.8118495656302337e-02  1.8156555834444893e-02  2.2254379842308398e-02  2.8905922054566551e-03  5.7273917746018194e-03  5.4542063140929180e-03  8.0127997679754863e-03  8.4558480771162563e-03  1.7799387409628525e-02  2.0954575332713526e-02  3.2125587550321426e-03  3.2254602287490890e-03  6.8116563105229495e-03  6.3743004091774951e-03  9.3631885378638365e-03  8.9974659928483205e-03  6.1753469933813051e-03  2.9937580527914500e-03  3.6035790227266318e-03  1.0369572362966489e-02  2.7097383190251741e-03  5.0946819970154487e-03  5.9923755435315924e-03  7.9084240034807407e-03  2.2425578001702161e-02  1.9686155116573345e-03  3.5114253263404832e-03  2.7610204601075587e-03  4.6244533856920284e-03  5.6260018619487626e-03  3.5397565012031929e-03  5.3289192760641851e-03  3.9898744855471676e-03  2.0427319732638973e-03  6.6562130125613732e-03  4.1924632746826547e-03  4.8325539800566867e-03  6.9086211700336974e-03  2.7235753153724510e-03  5.1920775082617025e-03  1.9852929391891358e-03  3.5997779990383093e-03  2.8120339194124982e-03  4.7259384061914328e-03  3.5807668198805077e-03  5.4166242934481235e-03  3.9328035776434629e-03  5.8474255167961821e-03  5.9603776007756707e-03  7.9272166798668303e-03  4.5060058270129065e-03  6.8552267554407662e-03  1.8124118968495251e-02  2.0825020506808349e-03  2.2323137353088340e-02  1.6817180267961258e-02  1.3208387091261800e-02  2.1717838580693410e-02  1.8660221874974882e-02  2.0151064742605220e-02  2.2756412935163472e-03  2.4446323182491449e-03  2.0059462373149269e-02  1.4924093125068172e-02  2.0468352210578085e-02  2.8749063143958965e-03  2.2061326233632039e-03  1.9329059989936660e-02  1.6329462388312353e-03  3.0090136567490857e-03  1.8417789685834592e-03  1.5075653882178591e-03  1.8251334501536220e-02  1.5454545073764509e-03  2.7073863322184385e-03  2.3869237825387330e-03  1.9019487243800644e-02  3.5032591119970365e-03  2.8956131705684981e-03  3.4164518729611851e-03  5.3212736927591344e-03  2.0192187135057032e-02  1.6742403189280879e-02  1.1022748099844024e-02  1.2647728643508629e-02  1.1521597876034