<?xml version="1.0"?>
<VTKFile type="UnstructuredGrid"  version="0.1"  >
<UnstructuredGrid>
<Piece  NumberOfPoints="1297" NumberOfCells="2496">
<Points>
<DataArray  type="Float64"  NumberOfComponents="3"  format="ascii">0 0 0  0 1 0  1 1 0  1 0 0  1.1 -0.1 0  -0.1 -0.1 0  1.1 1.1 0  -0.1 1.1 0  0.2807843205774715 0.6835234048173351 0  0.2807650139879017 0.3159386965397068 0  0.7197827689922236 0.3162061894948439 0  0.7198368801030245 0.6835142029014563 0  0.5002163742357817 0.4998096231233523 0  0 0.9499999999997918 0  0 0.8999999999995836 0  0 0.8499999999996529 0  0 0.7999999999999998 0  0 0.7500000000003466 0  0 0.7000000000006934 0  0 0.6500000000010401 0  0 0.6000000000013869 0  0 0.5500000000017335 0  0 0.5000000000020587 0  0 0.4500000000018723 0  0 0.4000000000016644 0  0 0.3500000000014564 0  0 0.3000000000012483 0  0 0.2500000000010403 0  0 0.2000000000008322 0  0 0.1500000000006241 0  0 0.100000000000416 0  0 0.05000000000020799 0  0.04999999999989965 0 0  0.09999999999981467 0 0  0.1499999999997036 0 0  0.1999999999995579 0 0  0.2499999999994121 0 0  0.2999999999992664 0 0  0.3499999999991206 0 0  0.3999999999989749 0 0  0.4499999999988292 0 0  0.4999999999986943 0 0  0.5499999999988151 0 0  0.5999999999989468 0 0  0.6499999999990784 0 0  0.69999999999921 0 0  0.7499999999993417 0 0  0.7999999999994734 0 0  0.8499999999996051 0 0  0.8999999999997368 0 0  0.9499999999998684 0 0  1 0.04999999999989965 0  1 0.09999999999981467 0  1 0.1499999999997036 0  1 0.1999999999995579 0  1 0.2499999999994121 0  1 0.2999999999992664 0  1 0.3499999999991206 0  1 0.3999999999989749 0  1 0.4499999999988292 0  1 0.4999999999986943 0  1 0.5499999999988151 0  1 0.5999999999989468 0  1 0.6499999999990784 0  1 0.69999999999921 0  1 0.7499999999993417 0  1 0.7999999999994734 0  1 0.8499999999996051 0  1 0.8999999999997368 0  1 0.9499999999998684 0  0.9499999999997918 1 0  0.8999999999995836 1 0  0.8499999999996529 1 0  0.7999999999999998 1 0  0.7500000000003466 1 0  0.7000000000006934 1 0  0.6500000000010401 1 0  0.6000000000013869 1 0  0.5500000000017335 1 0  0.5000000000020587 1 0  0.4500000000018723 1 0  0.4000000000016644 1 0  0.3500000000014564 1 0  0.3000000000012483 1 0  0.2500000000010403 1 0  0.2000000000008322 1 0  0.1500000000006241 1 0  0.100000000000416 1 0  0.05000000000020799 1 0  -0.1 1.05000000000004 0  -0.1 1.000000000000079 0  -0.1 0.9500000000001624 0  -0.1 0.9000000000003032 0  -0.1 0.850000000000444 0  -0.1 0.8000000000005848 0  -0.1 0.7500000000007256 0  -0.1 0.7000000000008665 0  -0.1 0.6500000000010508 0  -0.1 0.6000000000012352 0  -0.1 0.5500000000014196 0  -0.1 0.500000000001539 0  -0.1 0.4500000000014195 0  -0.1 0.4000000000013 0  -0.1 0.3500000000011588 0  -0.1 0.3000000000010178 0  -0.1 0.2500000000008986 0  -0.1 0.2000000000007579 0  -0.1 0.1500000000006174 0  -0.1 0.1000000000005272 0  -0.1 0.05000000000040083 0  -0.1 2.671196597248127e-13 0  -0.1 -0.0499999999998666 0  -0.0500000000000906 -0.1 0  -1.730560139634463e-13 -0.1 0  0.04999999999975802 -0.1 0  0.09999999999961506 -0.1 0  0.1499999999994613 -0.1 0  0.199999999999302 -0.1 0  0.2499999999991446 -0.1 0  0.2999999999990088 -0.1 0  0.3499999999988296 -0.1 0  0.3999999999986936 -0.1 0  0.4499999999985143 -0.1 0  0.4999999999984002 -0.1 0  0.5499999999985247 -0.1 0  0.5999999999986493 -0.1 0  0.6499999999987955 -0.1 0  0.6999999999989417 -0.1 0  0.7499999999990659 -0.1 0  0.7999999999992116 -0.1 0  0.8499999999993573 -0.1 0  0.8999999999994526 -0.1 0  0.949999999999584 -0.1 0  0.9999999999997226 -0.1 0  1.049999999999861 -0.1 0  1.1 -0.0500000000000906 0  1.1 -1.730560139634463e-13 0  1.1 0.04999999999975802 0  1.1 0.09999999999961506 0  1.1 0.1499999999994613 0  1.1 0.199999999999302 0  1.1 0.2499999999991446 0  1.1 0.2999999999990088 0  1.1 0.3499999999988296 0  1.1 0.3999999999986936 0  1.1 0.4499999999985143 0  1.1 0.4999999999984002 0  1.1 0.5499999999985247 0  1.1 0.5999999999986493 0  1.1 0.6499999999987955 0  1.1 0.6999999999989417 0  1.1 0.7499999999990659 0  1.1 0.7999999999992116 0  1.1 0.8499999999993573 0  1.1 0.8999999999994526 0  1.1 0.949999999999584 0  1.1 0.9999999999997226 0  1.1 1.049999999999861 0  1.05000000000004 1.1 0  1.000000000000079 1.1 0  0.9500000000001624 1.1 0  0.9000000000003032 1.1 0  0.850000000000444 1.1 0  0.8000000000005848 1.1 0  0.7500000000007256 1.1 0  0.7000000000008665 1.1 0  0.6500000000010508 1.1 0  0.6000000000012352 1.1 0  0.5500000000014196 1.1 0  0.500000000001539 1.1 0  0.4500000000014195 1.1 0  0.4000000000013 1.1 0  0.3500000000011588 1.1 0  0.3000000000010178 1.1 0  0.2500000000008986 1.1 0  0.2000000000007579 1.1 0  0.1500000000006174 1.1 0  0.1000000000005272 1.1 0  0.05000000000040083 1.1 0  2.671196597248127e-13 1.1 0  -0.0499999999998666 1.1 0  0.2740592579930435 0.6654505654114093 0  0.2722054934278357 0.6433860224746786 0  0.2712270777249912 0.6202652354340223 0  0.2705887044378731 0.596530361628244 0  0.2702149751650714 0.572508997139723 0  0.2699392210844545 0.5483367202492014 0  0.2697955157136089 0.5240611342646732 0  0.2697559971308489 0.4997636630687171 0  0.2698041511926274 0.4754534476361387 0  0.2699495281158652 0.4511603901389472 0  0.2702117614034976 0.4269682471342047 0  0.2706021509600538 0.4029393192101907 0  0.2712178472556597 0.3791968421716599 0  0.2722152486808679 0.3560206149322208 0  0.2740359728831322 0.3339691486986928 0  0.2984056206686395 0.3067323590028397 0  0.3196242040160938 0.3022001719833309 0  0.3419462803340623 0.2986401711145288 0  0.3646662044678766 0.2956095928311435 0  0.3874330512035424 0.2931134618061271 0  0.4101270431581703 0.2909381952490135 0  0.4327149609286534 0.2891225648183229 0  0.4552594081691744 0.2877682364553834 0  0.4777673095837737 0.286953838385187 0  0.5002574666129405 0.286695771413916 0  0.5227425926687999 0.2870042786069527 0  0.5452521936100054 0.2878474546066282 0  0.5678181347327724 0.2891728831476948 0  0.5904144420301161 0.291059740433241 0  0.6131651551179459 0.2932725209224896 0  0.6359654683272999 0.2958271104274608 0  0.6586471369767263 0.2988670257782788 0  0.6809167455854188 0.3024138976458255 0  0.702067404429123 0.306970291546261 0  0.7263461646659383 0.3344136113226781 0  0.728198161131561 0.356320168101794 0  0.7291696226273156 0.3794409462349926 0  0.7297717113647925 0.403152442606145 0  0.7301609633878761 0.4271560783365236 0  0.730422636112888 0.4513168862612769 0  0.7305752137310254 0.4755689802475471 0  0.7306171677426827 0.4998614568465981 0  0.7305824575967184 0.5241576313901229 0  0.7304540504214839 0.5484056252777308 0  0.7302188446255171 0.5725680759774671 0  0.7298605585002119 0.5965660336154099 0  0.7292363837361944 0.6202714069218477 0  0.7282578457560765 0.6434031651438521 0  0.7264154374479956 0.6653191248015962 0  0.7021256462673534 0.6927010831490313 0  0.6809797243129714 0.6972279277661629 0  0.6587207708915863 0.7008008814014406 0  0.6360170280686364 0.7038216173013183 0  0.6131932215787296 0.7064023382072281 0  0.5904060333076241 0.7085972152073947 0  0.5678006645494643 0.7104861214528206 0  0.5452295823172376 0.7118168116684616 0  0.5227195590028932 0.7126426865808186 0  0.5002476857723529 0.7129286622737488 0  0.4777673438100998 0.7126543957192196 0  0.4552583269610434 0.7118207102982246 0  0.4327166392650026 0.7104495631059704 0  0.4100940073299063 0.7086278869307349 0  0.3873529981591826 0.7064485261458163 0  0.3645838711013291 0.7039198144158767 0  0.3418851620650097 0.7008835699564951 0  0.3195812568865046 0.6973167663998224 0  0.2983811722529072 0.6927391669534557 0  0.3764025451187457 0.3169988760013145 0  0.2907048575403825 0.4387347973511427 0  0.3763560199262708 0.6825426707676582 0  0.2907031349854154 0.5607773215625398 0  0.7108241855831878 0.5844961748295799 0  0.6015354910744743 0.6857512759678724 0  0.6231887096671417 0.3166586248708865 0  0.7111163447460308 0.4381438006881264 0  0.7105627047700039 0.5114419582576221 0  0.5557763715455133 0.3099918552889241 0  0.4449952502922554 0.311873115691736 0  0.4436745246035059 0.6880949730827803 0  0.5339030387782289 0.6896094051839122 0  0.2903624635961007 0.487531690137284 0  0.2899465254907693 0.390403493871854 0  0.48920642876412 0.3124850650751931 0  0.295561440537068 0.60729637661832 0  0.705078823386236 0.3885594816448132 0  0.4890258561752191 0.6900650287803358 0  0.6468823127722619 0.6803220934178692 0  0.3309587999846296 0.3245889960710783 0  0.669805283946746 0.3261862324964698 0  0.3315270363046432 0.6771624751028211 0  0.7072718454258105 0.6341351612077615 0  0.2934297843424402 0.3438281066823483 0  0.2959497896277993 0.6542416551440579 0  0.69117368597016 0.6737276288391613 0  0.7077755390432606 0.3435476585670256 0  0.3538146972509737 0.6800415248876983 0  0.3655815455365847 0.6592197415270492 0  0.3878582398102798 0.6609944038355491 0  0.3764474072586455 0.637548240891063 0  0.3995547242342211 0.6388762649419162 0  0.3871298505288893 0.6128307431150375 0  0.4145552047840805 0.6139851309149829 0  0.3994384131893723 0.5828540661600973 0  0.360133830561581 0.6108458988472865 0  0.4325966887105604 0.5832469135653644 0  0.41366830469524 0.5476316768699092 0  0.3751041081930021 0.55307491289419 0  0.3918263930615634 0.5139988764397956 0  0.3556757431818477 0.5161407268371143 0  0.3682068403470032 0.4814871377669969 0  0.4062722672050639 0.4762790061765407 0  0.3855959466570222 0.4436287200660037 0  0.4204471263029053 0.4383958003251452 0  0.4004070433973124 0.407608048317272 0  0.4325119734698366 0.3961094300656449 0  0.3670749331794559 0.40890031340997 0  0.4085776542714467 0.3751926412418896 0  0.4411676094178924 0.616210030186197 0  0.466406815558755 0.5910902579410322 0  0.4842708432366726 0.6168794195385163 0  0.5023229688215292 0.5926912427206293 0  0.5195447219964688 0.6170674350406189 0  0.5373866271024335 0.5931187093412422 0  0.5544124521450049 0.6177097098724865 0  0.5720265946335518 0.5940852504268196 0  0.5898053504616961 0.6211743559301037 0  0.6061986401681065 0.5884511304667466 0  0.5901495873123687 0.
[...]
<PointData  Scalars="u"> 
<DataArray  type="Float64"  Name="u"  format="ascii">-6.0795589726528621e-19  6.0090547888560365e-19  2.4042493066490192e-18  -3.1960324203060709e-18  1.7609738456434445e-19  1.5268953173664092e-20  -9.6351183565289766e-20  -4.3429322192627568e-21  -1.5314682828911147e-01  -1.5302145337286802e-01  -1.5279069679426854e-01  -1.5297256988859320e-01  2.5307552125545380e-02  -3.7596872911264005e-19  -1.0587949735589073e-17  2.6143416639623134e-18  -9.9451233142747697e-19  1.5380720821603177e-18  -1.9844718970875177e-17  -1.3850787956021910e-17  4.5101104144517071e-18  1.9432834902004290e-17  -2.3167223217056015e-17  -1.4367395079815921e-17  1.0952399837927766e-17  -8.5130683272228030e-19  -1.4297269730204864e-18  -1.3123947203024562e-18  1.6640859965693465e-18  -1.1566693050312353e-17  2.1032037026555727e-18  1.5167579493440022e-18  -3.7321792042661809e-18  -3.5167018396313154e-18  -3.7850475647109405e-18  -5.5961364213666421e-18  5.8569442433972053e-18  -5.8450757106360562e-18  -2.8936341857348948e-18  -1.4838067778115590e-18  2.1522200971714524e-18  -1.0406391869599885e-17  6.1994654168759414e-18  9.0695365110280637e-18  1.7696940519361508e-18  2.5682778767993217e-19  -9.7985163820384344e-18  -1.0089284575174193e-17  -5.4418978188270796e-18  5.0064790890426997e-19  -1.6278614063160346e-18  1.0979380822756771e-17  1.3913197457756423e-17  -7.1218191690400361e-18  -2.8643325713663457e-18  -3.3368359841042883e-18  -5.1563494589459634e-18  -4.0259857785631030e-18  1.4115903018498573e-17  -8.2758621128730403e-18  1.5482472030038427e-18  -9.3780481835940854e-18  -1.4659649950988576e-17  -7.4831026320015012e-19  -4.4585669410361212e-18  -1.2226960841293047e-18  3.9267162525783374e-18  -1.3523498132113846e-18  -1.1942360204165035e-17  -1.2263123658761113e-18  1.4744591067615602e-18  -3.7006500477692839e-19  0.0000000000000000e+00  0.0000000000000000e+00  9.5939779393065425e-18  7.5011662340768716e-18  5.0019206951008791e-18  -1.8150036323433385e-17  1.8876255309716748e-17  -2.2986424516714108e-17  4.7564374944968470e-19  -2.5454759333653379e-18  4.3829309213307371e-18  7.2360548825266812e-18  -4.8630796761048932e-18  -5.8556335107110830e-18  -2.1542259810345236e-18  -4.8167303654178857e-19  1.6973789587480279e-18  -2.9994212704438084e-20  2.5323915650670891e-19  -5.4946674522449117e-19  -6.7491271305073598e-19  -2.1346218260355558e-19  1.8289633291199654e-19  -4.3846732384606737e-19  -2.2867718773979470e-18  -2.2707293287035426e-18  1.3020282346646256e-18  1.6713483632924812e-18  -2.2792185993442987e-18  -1.6182807140534095e-18  7.9338074318758366e-19  5.1525333754792758e-19  -8.3359126970276626e-19  -3.2955211327887181e-19  1.0018375707904501e-19  -8.2174204144242751e-19  -2.1824193933781620e-19  3.8449724133821486e-19  -9.3305188604554646e-20  -2.9157433624785656e-20  4.0033466669420600e-20  -1.5378069805998775e-19  -4.8370726166961176e-19  -4.7030042533533988e-19  -7.7769299404443813e-19  -1.7932262458941007e-19  5.8284054217100269e-19  -1.2201081100533356e-18  -9.6959538537479777e-19  1.9186741169970012e-19  -1.8992633997317794e-19  -1.0232888935139667e-18  4.6419174796435578e-19  1.2413467024083536e-18  3.4615830427005720e-19  -1.9147505154474158e-19  -1.1325270496996330e-18  -1.9808565223833216e-18  -8.1881720678007495e-19  -1.7904033302816460e-19  -2.8349490699617961e-19  -3.2429392742753426e-19  -4.8474457275596147e-20  -2.0217820303645628e-19  -1.8700549130857589e-19  1.5239069778165679e-18  1.8259795767003031e-18  -5.7632532108769084e-19  -7.2625581363004656e-19  -2.8136092332311509e-19  -1.1969515667606305e-18  -2.4722269105575102e-19  1.5249524532729240e-18  -2.3454420425593779e-19  -4.2908814952783836e-19  -1.2008809384920368e-18  -1.8251325709528156e-18  -5.4051052065236849e-19  -7.0263858138907434e-19  -1.0930394361607343e-19  5.0469406575157344e-19  -3.6256380681144625e-19  -1.4249365848615587e-18  -4.4754842238059894e-19  3.9579692564988223e-19  3.6229528533659326e-20  3.3675604546841398e-20  3.0684417845102145e-19  1.9088063348598955e-19  -4.8664685200512916e-21  -4.4916220297617588e-20  1.1339148418827072e-19  1.1009359116591642e-18  1.5399452900430102e-18  -4.6716834124620740e-19  -5.0088209514713991e-20  7.3480282486032180e-19  -1.4878612221205989e-18  -1.0114655046862417e-18  -1.0686068101623396e-19  3.5858293473187703e-19  4.5067116524327770e-19  -7.4403522669254496e-19  -3.1736909437910161e-19  -6.6723790861063577e-20  -1.2792863309293086e-19  2.2812291169857185e-19  2.1112689900448340e-19  -3.5274447717931440e-20  -1.4899320517286077e-01  -1.4163926630651663e-01  -1.3428476439476644e-01  -1.2762404115560336e-01  -1.2241552519964208e-01  -1.1858379320209714e-01  -1.1627229486480350e-01  -1.1541176936513343e-01  -1.1624704650266329e-01  -1.1860868918279840e-01  -1.2232250877803139e-01  -1.2748564466535445e-01  -1.3416116243981102e-01  -1.4158186594343491e-01  -1.4888950191790642e-01  -1.5122517859082907e-01  -1.4605107300580461e-01  -1.4009620036677270e-01  -1.3441131637330195e-01  -1.2957122826506526e-01  -1.2577316913583650e-01  -1.2280493610604709e-01  -1.2068058356671948e-01  -1.1949889240941911e-01  -1.1906584075946887e-01  -1.1943781692775962e-01  -1.2068501834884385e-01  -1.2260957469308284e-01  -1.2574014508353365e-01  -1.2952180310328185e-01  -1.3427616711070511e-01  -1.3991769605209259e-01  -1.4590126292576255e-01  -1.5101195639351048e-01  -1.4846211211492855e-01  -1.4122858519413695e-01  -1.3387509737410144e-01  -1.2721209514704063e-01  -1.2201911685301087e-01  -1.1822931584866087e-01  -1.1593352739907145e-01  -1.1520193370912901e-01  -1.1605089496478757e-01  -1.1832759197668544e-01  -1.2218309460061039e-01  -1.2739579403892770e-01  -1.3400834651043431e-01  -1.4138810565145296e-01  -1.4863937522884380e-01  -1.5122536108534107e-01  -1.4607745692310412e-01  -1.4014819769470457e-01  -1.3445542278390887e-01  -1.2974701046968273e-01  -1.2593636149088475e-01  -1.2282632599898977e-01  -1.2092186700673077e-01  -1.1968733830985891e-01  -1.1928165912130714e-01  -1.1971820535392613e-01  -1.2093953998206750e-01  -1.2308722708852302e-01  -1.2599988919272004e-01  -1.2979061171465728e-01  -1.3463404938200374e-01  -1.4032313381082989e-01  -1.4624649384031069e-01  -1.5140509801837598e-01  -9.3615570144658086e-02  -8.3744091297293002e-02  -9.3787248727251485e-02  -8.3871339012893342e-02  -9.0129900720074929e-02  -8.8933047256602463e-02  -9.3544706890134929e-02  -8.4784150715142337e-02  -7.8203226727659406e-02  -8.1460782277418417e-02  -7.9780576100224862e-02  -8.0519589983835058e-02  -7.8767446159460255e-02  -7.8051690649018721e-02  -9.8425636230817209e-02  -7.4837664411852925e-02  -9.3919075033806490e-02  -9.5255471420246290e-02  -7.7690108142232886e-02  -1.0142366777624752e-01  -1.0849110759650674e-01  -1.0757416502954784e-01  -1.0982488208522366e-01  -1.0703178281416133e-01  -1.1741047848017726e-01  -1.1545029161157415e-01  -1.1855860211750248e-01  -1.1778340322315355e-01  -1.0121521456114069e-01  -8.0393339039576323e-02  -7.2488258022133892e-02  -5.8816015226264770e-02  -5.0563053146227589e-02  -3.6614481976994642e-02  -2.6409478231310426e-02  -1.6245141771057514e-02  -4.9208619073087566e-02  -4.3637442703836019e-03  1.9516876060392007e-03  -1.7359135930797329e-02  -2.1996236196726603e-03  -2.3926830721317786e-02  -1.5368270338677430e-02  3.5018453896294081e-03  -1.2690209648718044e-02  5.4842939630767756e-04  -1.9714468224637790e-02  -1.4168212061031504e-02  -3.4896397378878938e-02  -3.5667505460886671e-02  -2.0155775598953412e-02  -7.0194414412281072e-04  -1.4416609678057562e-02  8.5217730859024870e-04  -1.4847825670237146e-02  -2.2240478481991930e-03  -2.0240349814126323e-02  -1.0508284651706121e-02  -3.2585230492520233e-02  -2.0631816764419469e-02  -1.2405660885309888e-03  -1.7351070438908111e-02  -1.5644940064784452e-03  -3.7152964447238271e-02  -4.0051809981977965e-02  -4.8624515673799669e-02  -4.4463966608766857e-02  -3.9923734016890325e-02  -4.9437759849014551e-02  -3.2861700945842752e-02  -1.2079701407076484e-02  -6.6230968196581919e-02  -5.4060580123907458e-02  -4.1273236761626704e-02  -4.6174645851455857e-02  -3.5698769269394720e-02  -9.7227182239579806e-03  -3.8333948320408394e-02  -1.5416982528826905e-02  6.3881822623781210e-03  -5.5740628629876660e-03  -2.5098064676882699e-02  -2.0925100688362567e-02  2.5348860018322701e-03  -1.7979843774383022e-02  -3.6965094268964521e-02  -3.7427940605074865e-02  -2.4770545018310233e-02  -5.5540074428972463e-02  -6.0041315566723139e-02  -7.6148447534433727e-02  -7.6424703614787245e-02  1.2334275451382581e-02  -6.0044084835122573e-02  -5.9256003262022551e-02  -6.2866891128451355e-02  -4.9677847376950530e-02  -7.7199564829667930e-02  -8.1665112401561060e-02  -6.9120097177309353e-02  -4.0977881207920321e-02  -5.9666939139857246e-02  -6.8139900074827800e-02  -5.4228828858052913e-02  -3.4959003402098614e-02  -5.3449681255309404e-02  -5.8549341165313358e-02  -3.8494451372462615e-02  -5.5384597659292795e-02  -7.2346156835965514e-02  -7.9281444267780651e-02  -6.9286083087997108e-02  -6.4463921514916644e-02  -5.7694804027066914e-02  -7.1403071410021515e-02  -4.0741239159493105e-02  1.5574938442668610e-02  -7.2835932919820684e-02  1.5489651481918325e-02  -2.2369548633492029e-02  -4.5898753893966159e-02  -2.6675773807250617e-02  -4.7552072152841018e-02  -6.2555067372637566e-02  -6.6215485170256758e-02  -5.5597997142331435e-02  -4.1310124816677313e-02  -5.6560281686834829e-02  -5.8748865068110355e-02  5.4729816462633224e-03  -9.1295410203642388e-02  -9.3298142011461777e-02  -4.4027619909532294e-02  -6.4263989546957515e-02  -5.9928035318010248e-02  -4.8166437944871722e-02  -5.6171627802244523e-02  -7.2957609540369492e-02  -5.9402703380014646e-02  -7.4170861017527623e-02  -7.4960998839649920e-02  -8.9109729181033340e-02  -1.0072352101449748e-01  -1.0037638908033890e-01  -6.2632321684124123e-02  -7.6322131021856796e-02  -7.9016968450835653e-02  -8.8824359642996356e-02  -1.0341837219271420e-01  -1.0715514367664866e-01  -8.3583048542343219e-02  -6.2358603686575927e-02  -4.4395756018487137e-02  -9.4671482031939300e-02  -8.8073889479196477e-02  -8.0760519025655758e-02  -1.0105491679413847e-01  -7.9673587076333513e-02  -7.7471798758609295e-02  -8.8527933956210003e-02  -1.0688267935409049e-01  -8.8940708914091240e-02  -7.8475781930263194e-02  -8.8953718287962183e-02  -7.1785219196813535e-02  -8.4441060861853184e-02  -6.9222939589254837e-02  -8.1453813971942443e-02  -9.5000999736821523e-02  -1.0967067866956993e-01  -1.0180114370682115e-01  -7.5651713648953761e-02  -5.3186214947938806e-02  -9.0456391894513460e-02  -8.8249194509032861e-02  -7.9577297137624195e-02  -1.1853192634867804e-01  -1.1891809665918666e-01  -1.1761211576688324e-01  -1.1859003290745398e-01  -8.2707210386180882e-02  7.0042989833789798e-03  1.8375089286112908e-02  -6.1668556400002933e-02  -8.8756306082994063e-02  -9.0739119988386713e-02  -8.9731070539787405e-02  -1.0778689168551342e-01  -7.9675086837266471e-02  -8.2180350200236049e-02  -5.7707364872508528e-02  -4.6543528381985347e-02  -7.8164276966079665e-02  -4.4598360210048822e-02  1.3409043179425187e-02  1.2690316869518171e-02  -8.0820805443405780e-03  -6.9941077482332498e-02  -8.1501734651067609e-02  -6.0041740600064127e-02  -6.8016675084881476e-02  -6.0381628946798382e-02  -8.0236842738092395e-02  -7.9554537926100816e-02  1.0486078831415988e-02  -9.2439179692698034e-02  -6.2600361494534768e-02  -6.8826158837276843e-02  -3.8405847895773962e-02  -7.8948806015628689e-02  -4.1802463383125120e-02  -7.7762617856222743e-03  -8.2491267264128781e-02  2.0683253912251044e-02  -3.0599808588651221e-02  -1.0539588762696847e-01  -4.4092593881393492e-02  -6.1236165159278343e-02  -6.5265335928505142e-02  7.8998369320378934e-03  -8.2418445036674670e-02  -7.4834018528729493e-02  -6.0904977008565980e-02  2.2501359188679147e-02  -6.8437145034351624e-02  -6.1260991854789941e-02  1.8474058048757794e-02  -3.5174589515124019e-02  -5.9116825017690479e-02  2.2096818901638553e-02  -4.1009259502786576e-02  -7.2768758270594702e-02  -7.7681282608887500e-02  -5.4524138797753550e-02  -3.3933396341669086e-02  -6.2209712491944950e-02  -8.3565289451681277e-02  -4.3589088370637789e-02  -1.2626269372001467e-01  -1.2601192284983909e-01  -1.2639089954999649e-01  -1.2620312215897297e-01  -7.5717900061845755e-02  -9.2544606670096549e-02  -7.1023150320130179e-02  -8.3942756281104092e-02  -6.4497463236697430e-02  -3.0817012933262406e-02  -9.0251725942610231e-02  -7.9978758991185381e-02  -5.2148221628303973e-02  -2.4802908960837290e-02  -3.4736573250652561e-02  -2.2424097877995874e-02  -7.5360748594387489e-02  -2.4700433613572069e-02  -6.1296201323402591e-02  -1.8745362459166168e-02  2.1073770377620572e-02  -5.6830761491074994e-02  -3.7293800712177416e-02  -5.0828715672484079e-02  -6.1041806120112979e-02  -3.0096379096126769e-02  -2.5108810903845567e-02  1.4605004099871095e-02  -1.0044831837413244e-01  -1.4509077248893545e-01  -1.4547978190978927e-01  -1.5270183819272387e-01  -1.6535177899203612e-01  -1.5281231765962100e-01  -1.6574014474440146e-01  -1.4511428638530885e-01  -1.5210374538466495e-01  -1.4507741575858646e-01  -1.5228554717986964e-01  -1.6496466907143356e-01  -1.6516688116409961e-01  -6.9432219012724741e-02  -6.1645639877891317e-02  -7.4461621468231903e-02  -6.4738422021173747e-02  -1.4144541778325168e-01  -1.5871689628709043e-01  -1.5826101472682419e-01  -1.4079152026745959e-01  -1.7078036892569792e-01  -1.7650190897879786e-01  -1.4364529815314911e-01  -1.4373445928198209e-01  -1.6472886122996611e-01  -1.7732597973470907e-01  -1.8231054693868717e-01  -1.8284478414803415e-01  -1.8605102916630140e-01  -1.8715238426191347e-01  -6.4862327363541764e-02  -6.1889783389720426e-02  -6.4297912586402786e-02  -6.2448621665527657e-02  -7.4400118823482783e-02  -7.2619657984960825e-02  -7.6441817481459534e-02  -1.8652500181687084e-01  -1.8806319760904641e-01  -1.8105970132338564e-01  -1.7680152131673499e-01  -8.4372783898112230e-02  -8.0436656372621262e-02  -7.7439058759113763e-02  -7.6944735110186735e-02  -8.3485402958878838e-02  -7.8471953578317960e-02  -8.9187294382178220e-02  -5.9900338904262961e-02  -1.7676593129830573e-01  -1.7377021071398890e-01  -6.8307603164352110e-02  -6.0341827118068611e-02  -6.7982945800370842e-02  -1.7385524061181992e-01  -1.7713184373169746e-01  -1.8148530808536420e-01  -1.8441015225960866e-01  -1.8697144430691692e-01  -1.8732615014769194e-01  -1.8504491961009822e-01  -1.8725253533569977e-01  -1.8767715804231244e-01  -1.8339644252971810e-01  -1.7407318342572178e-01  -1.7767266658549397e-01  -1.8178587623093040e-01  -1.8464032419769416e-01  -1.8155546682100049e-01  -1.8724752709381762e-01  -1.8751055010208675e-01  -1.8757298705985467e-01  -1.8797957242056818e-01  -1.8383018807487242e-01  -1.5245858126011247e-01  -1.7056792645307023e-01  -1.7631517802607316e-01  -1.7715380945064080e-01  -1.8220364989301999e-01  -1.8267520976705848e-01  -1.8586800146944796e-01  -1.8694299782473392e-01  -1.8653816941849294e-01  -1.8740203128164487e-01  -1.3916889903010346e-01  -1.3994844731908401e-01  -1.4790889602583426e-01  -1.4759442212776255e-01  -1.8361344022202492e-01  -1.8361620786394900e-01  -1.8421208466359384e-01  -1.8183986540528430e-01  -1.8350877626268258e-01  -1.8502991957429227e-01  -7.3432466809198738e-02  -1.8092173187787816e-01  -1.8697092078817049e-01  -1.8162977244472850e-01  -1.8105529039919935e-01  -1.8616334289767208e-01  -1.8371170096594766e-01  -1.5161221152915455e-01  -1.7239938901942983e-01  -1.7261194075350150e-01  -6.1148681872613783e-02  -5.7004609355430690e-02  -6.1028245208857829e-02  -1.7035800559098535e-01  -1.7197968692334931e-01  -1.6585839718239165e-01  -1.6416196254213614e-01  -1.7632604931387019e-01  -1.8227329548586407e-01  -1.7612772655710979e-01  -1.8202970608700769e-01  -1.7247440886597470e-01  -1.8211543861846194e-01  -1.7040065968022361e-01  -1.8009345000024721e-01  -1.6755072150240796e-01  -1.7540816143015356e-01  -1.7255699524624007e-01  -1.8172959544828104e-01  -1.6983692437054218e-01  -1.7836116189934173e-01  -1.6652671022399684e-01  -1.7474855342660658e-01  -1.6330527289639371e-01  -1.7168044412578568e-01  -1.6038158357321983e-01  -1.6946473280905328e-01  -1.5850904558336154e-01  -1.6844995973621113e-01  -1.5752460685047137e-01  -1.6857563389368058e-01  -1.6390190616832018e-01  -1.7212976985666908e-01  -1.6074397114767552e-01  -1.6984174471229152e-01  -1.5876309284644743e-01  -1.6879563291985611e-01  -1.5759610952767228e-01  -1.6883474018470152e-01  -1.6898624901733825e-01  -1.6837701259912213e-01  -1.8227612341408300e-01  -1.8250314645337429e-01  -1.6878847615798237e-01  -1.6745103317222065e-01  -1.5817664968238479e-01  -1.6991302208606748e-01  -1.5907955683924038e-01  -1.7194640819459470e-01  -1.6040693195581013e-01  -1.5813961286683390e-01  -1.7001849088216547e-01  -1.5883246769439949e-01  -1.7201698162584575e-01  -1.6051754514666564e-01  -1.8345796650509991e-01  -1.7418011226328872e-01  -1.7189120137733971e-01  -1.7326938848963469e-01  -1.7638090845907106e-01  -1.7291533342818799e-01  -1.7598897398766788e-01  -1.6954933625690177e-01  -1.5110573026798632e-01  -1.6921340647644373e-01  -1.5150526379637683e-01  -1.7131109465013411e-01  -1.3829142892249199e-01  -1.7069343529309802e-01  -1.6595536825012916e-01  -1.5345836868726401e-01  -1.5016572105125950e-01  -1.3844877745988521e-01  -1.6684779510560827e-01  -1.5110069803499912e-01  -1.7699983135877517e-01  -1.4882484944340899e-01  -1.7653865785869960e-01  -1.4650137954994591e-01  -1.4600724403885804e-01  -1.4467555217266306e-01  -1.6322267128503151e-01  -1.4559466999932727e-01  -1.6054586609376684e-01  -1.1930768893629135e-01  -1.8455113623124927e-01  -4.8290668206102436e-02  -1.7128983806177905e-01  -1.8551228774466591e-01  -1.4448358070010744e-01  -1.4436168403665367e-01  -1.5887160588295279e-01  -1.4386516664385082e-01  -1.7784107078732225e-01  -1.7814301347106781e-01  -1.7166065239117934e-01  -1.7677341949907543e-01  -1.7229535345754882e-01  -1.7413593282109271e-01  -1.7022059198336442e-01  -1.6529694948840962e-01  -1.6221597304222651e-01  -1.7080706411425561e-01  -1.6599150081300854e-01  -1.5977041946539747e-01  -1.6161730090834203e-01  -1.5766316988397999e-01  -1.5901887555738814e-01  -1.5667164841357292e-01  -1.5756863349144004e-01  -1.5543768301660971e-01  -1.5657821145921907e-01  -1.4471274624607830e-01  -1.5983825203117105e-01  -1.6352778618872213e-01  -1.6032251489257876e-01  -1.2175550028683357e-01  -1.5794373589645902e-01  -1.4345254035760238e-01  -1.4604694820469050e-01  -1.4532606289272981e-01  -4.4303754052608516e-02  -5.2123407496853680e-02  -4.8363049661106758e-02  -1.7488470127198974e-01  -1.7013227431515979e-01  -1.8019438989902764e-01  -1.6545190867108761e-01  -1.7493743095953385e-01  -1.2914342015612287e-01  -1.3043643242801448e-01  -1.3182791685527356e-01  -1.5450634379966890e-01  -1.6568038880259889e-01  -1.7353654145926248e-01  -1.6879602142610980e-01  -1.5556117638936165e-01  -1.6210287171182791e-01  -1.6363226034991471e-01  -1.6107241666834093e-01  -1.5650624062669138e-01  -1.5929441621794307e-01  -1.4929167995470533e-01  -1.5688475931818788e-01  -1.5720867062011407e-01  -1.5884141370028432e-01  -1.5415509908391190e-01  -1.6073671678598300e-01  -1.5090308617251111e-01  -1.6133906105558835e-01  -1.6213174064317201e-01  -1.6630109148717007e-01  -1.6119202338854924e-01  -1.7069564850082453e-01  -1.5928988699341345e-01  -1.7401527970605773e-01  -1.5412619486182630e-01  -1.6978095964049403e-01  -1.6812291860773129e-01  -1.7300413866595188e-01  -1.6592964369604488e-01  -1.8178550771202759e-01  -1.7902458731866375e-01  -1.4529702085554508e-01  -1.3752227122417143e-01  -1.6760297132953822e-01  -1.6540970746678088e-01  -1.7956286990591158e-01  -1.5492012518372575e-01  -1.7992659152394511e-01  -1.4325236229341853e-01  -1.5912080301412854e-01  -1.5912816109391062e-01  -1.7478654500176055e-01  -1.4025296698603748e-01  -1.6073285088081751e-01  -1.5275150793293210e-01  -1.3702998694613003e-01  -1.3785082791368650e-01  -1.5865535857564178e-01  -1.6204490