<?xml version="1.0"?>
<VTKFile type="UnstructuredGrid"  version="0.1"  >
<UnstructuredGrid>
<Piece  NumberOfPoints="1297" NumberOfCells="2496">
<Points>
<DataArray  type="Float64"  NumberOfComponents="3"  format="ascii">0 0 0  0 1 0  1 1 0  1 0 0  1.1 -0.1 0  -0.1 -0.1 0  1.1 1.1 0  -0.1 1.1 0  0.3099188507215923 0.6665143268628092 0  0.3099142148170151 0.3327986549714438 0  0.6898025696206608 0.3331508801384696 0  0.6897987126373961 0.6659896942431156 0  0.4997036711822258 0.499573294401729 0  0 0.9499999999997918 0  0 0.8999999999995836 0  0 0.8499999999996529 0  0 0.7999999999999998 0  0 0.7500000000003466 0  0 0.7000000000006934 0  0 0.6500000000010401 0  0 0.6000000000013869 0  0 0.5500000000017335 0  0 0.5000000000020587 0  0 0.4500000000018723 0  0 0.4000000000016644 0  0 0.3500000000014564 0  0 0.3000000000012483 0  0 0.2500000000010403 0  0 0.2000000000008322 0  0 0.1500000000006241 0  0 0.100000000000416 0  0 0.05000000000020799 0  0.04999999999989965 0 0  0.09999999999981467 0 0  0.1499999999997036 0 0  0.1999999999995579 0 0  0.2499999999994121 0 0  0.2999999999992664 0 0  0.3499999999991206 0 0  0.3999999999989749 0 0  0.4499999999988292 0 0  0.4999999999986943 0 0  0.5499999999988151 0 0  0.5999999999989468 0 0  0.6499999999990784 0 0  0.69999999999921 0 0  0.7499999999993417 0 0  0.7999999999994734 0 0  0.8499999999996051 0 0  0.8999999999997368 0 0  0.9499999999998684 0 0  1 0.04999999999989965 0  1 0.09999999999981467 0  1 0.1499999999997036 0  1 0.1999999999995579 0  1 0.2499999999994121 0  1 0.2999999999992664 0  1 0.3499999999991206 0  1 0.3999999999989749 0  1 0.4499999999988292 0  1 0.4999999999986943 0  1 0.5499999999988151 0  1 0.5999999999989468 0  1 0.6499999999990784 0  1 0.69999999999921 0  1 0.7499999999993417 0  1 0.7999999999994734 0  1 0.8499999999996051 0  1 0.8999999999997368 0  1 0.9499999999998684 0  0.9499999999997918 1 0  0.8999999999995836 1 0  0.8499999999996529 1 0  0.7999999999999998 1 0  0.7500000000003466 1 0  0.7000000000006934 1 0  0.6500000000010401 1 0  0.6000000000013869 1 0  0.5500000000017335 1 0  0.5000000000020587 1 0  0.4500000000018723 1 0  0.4000000000016644 1 0  0.3500000000014564 1 0  0.3000000000012483 1 0  0.2500000000010403 1 0  0.2000000000008322 1 0  0.1500000000006241 1 0  0.100000000000416 1 0  0.05000000000020799 1 0  -0.1 1.05000000000004 0  -0.1 1.000000000000079 0  -0.1 0.9500000000001624 0  -0.1 0.9000000000003032 0  -0.1 0.850000000000444 0  -0.1 0.8000000000005848 0  -0.1 0.7500000000007256 0  -0.1 0.7000000000008665 0  -0.1 0.6500000000010508 0  -0.1 0.6000000000012352 0  -0.1 0.5500000000014196 0  -0.1 0.500000000001539 0  -0.1 0.4500000000014195 0  -0.1 0.4000000000013 0  -0.1 0.3500000000011588 0  -0.1 0.3000000000010178 0  -0.1 0.2500000000008986 0  -0.1 0.2000000000007579 0  -0.1 0.1500000000006174 0  -0.1 0.1000000000005272 0  -0.1 0.05000000000040083 0  -0.1 2.671196597248127e-13 0  -0.1 -0.0499999999998666 0  -0.0500000000000906 -0.1 0  -1.730560139634463e-13 -0.1 0  0.04999999999975802 -0.1 0  0.09999999999961506 -0.1 0  0.1499999999994613 -0.1 0  0.199999999999302 -0.1 0  0.2499999999991446 -0.1 0  0.2999999999990088 -0.1 0  0.3499999999988296 -0.1 0  0.3999999999986936 -0.1 0  0.4499999999985143 -0.1 0  0.4999999999984002 -0.1 0  0.5499999999985247 -0.1 0  0.5999999999986493 -0.1 0  0.6499999999987955 -0.1 0  0.6999999999989417 -0.1 0  0.7499999999990659 -0.1 0  0.7999999999992116 -0.1 0  0.8499999999993573 -0.1 0  0.8999999999994526 -0.1 0  0.949999999999584 -0.1 0  0.9999999999997226 -0.1 0  1.049999999999861 -0.1 0  1.1 -0.0500000000000906 0  1.1 -1.730560139634463e-13 0  1.1 0.04999999999975802 0  1.1 0.09999999999961506 0  1.1 0.1499999999994613 0  1.1 0.199999999999302 0  1.1 0.2499999999991446 0  1.1 0.2999999999990088 0  1.1 0.3499999999988296 0  1.1 0.3999999999986936 0  1.1 0.4499999999985143 0  1.1 0.4999999999984002 0  1.1 0.5499999999985247 0  1.1 0.5999999999986493 0  1.1 0.6499999999987955 0  1.1 0.6999999999989417 0  1.1 0.7499999999990659 0  1.1 0.7999999999992116 0  1.1 0.8499999999993573 0  1.1 0.8999999999994526 0  1.1 0.949999999999584 0  1.1 0.9999999999997226 0  1.1 1.049999999999861 0  1.05000000000004 1.1 0  1.000000000000079 1.1 0  0.9500000000001624 1.1 0  0.9000000000003032 1.1 0  0.850000000000444 1.1 0  0.8000000000005848 1.1 0  0.7500000000007256 1.1 0  0.7000000000008665 1.1 0  0.6500000000010508 1.1 0  0.6000000000012352 1.1 0  0.5500000000014196 1.1 0  0.500000000001539 1.1 0  0.4500000000014195 1.1 0  0.4000000000013 1.1 0  0.3500000000011588 1.1 0  0.3000000000010178 1.1 0  0.2500000000008986 1.1 0  0.2000000000007579 1.1 0  0.1500000000006174 1.1 0  0.1000000000005272 1.1 0  0.05000000000040083 1.1 0  2.671196597248127e-13 1.1 0  -0.0499999999998666 1.1 0  0.2985827488691062 0.6543942984773768 0  0.2874397922301325 0.6365416502162703 0  0.2794412461664729 0.6157847092710153 0  0.2737520227845379 0.5933790762766034 0  0.2697331043254108 0.570272921592034 0  0.2669919840796615 0.5468839444518312 0  0.265325211729723 0.5233210878840255 0  0.2648157728592388 0.4996661391503776 0  0.26540154673254 0.4760082966375591 0  0.2670088176617439 0.4524047916815142 0  0.2697396338283881 0.4289835146480801 0  0.2738013399544717 0.4058950349126621 0  0.2795248031464644 0.383557741846722 0  0.2875169653296893 0.3627484021430174 0  0.2987273067019249 0.3448570344405589 0  0.3219144967987486 0.3153621509211672 0  0.3375532998433892 0.2999773454854884 0  0.3562897093978226 0.2874629464285516 0  0.3764956253768548 0.277299132707498 0  0.3971300369527044 0.2690890606614013 0  0.4178414335425636 0.2625301166248453 0  0.438401385555126 0.2574382766781593 0  0.4589295665693792 0.253647763939202 0  0.4794899323750497 0.2513782451161715 0  0.5000533615022286 0.250639725328445 0  0.5206096197254179 0.2514285722635614 0  0.5411660107365293 0.2537116042242055 0  0.5617587475142518 0.2574390233552349 0  0.5823475239711948 0.2625774905715216 0  0.6031856357087853 0.2691991843146115 0  0.6238909352177228 0.2774571235703307 0  0.643936295036558 0.2876747909607983 0  0.6624573473638763 0.3001753993879669 0  0.6779035063739656 0.3155297069965524 0  0.7011102697843126 0.345267820854469 0  0.7120429504597138 0.3629293513583597 0  0.7199361541004445 0.3837003261560932 0  0.7255159056130679 0.4060495466131596 0  0.7294286859377571 0.429110499935245 0  0.7320335763430894 0.4524631673425174 0  0.7334938086127416 0.4759452613794586 0  0.7339032462158379 0.4994843520724681 0  0.733222195512274 0.5230001827954005 0  0.7316762153368611 0.5463901987862098 0  0.7291403066687415 0.5696924266738935 0  0.7253394997387383 0.592755397865498 0  0.7198607747025433 0.6151966600245813 0  0.7120443938412631 0.6360462329170106 0  0.7011603692737085 0.6537989284458448 0  0.6780037961398482 0.6835096867394732 0  0.6625846395750159 0.6988607103727852 0  0.6441042457012565 0.7114120101531911 0  0.6240339873194196 0.7216589793438764 0  0.6032806387080156 0.7299601625822055 0  0.5823796460271576 0.7366210991530115 0  0.5617495127395291 0.7417798348057379 0  0.541131830699535 0.7454936115103565 0  0.5205837930741047 0.7477387767959331 0  0.5000786740475528 0.7485026393354971 0  0.4795487678743091 0.747768420837524 0  0.4589920531871665 0.745491471877871 0  0.4384616419958563 0.741725642300794 0  0.4178065110935972 0.7366603055500538 0  0.3969825461599717 0.730125744790615 0  0.3763258946675255 0.721940368672215 0  0.3561554180437018 0.7117863003214071 0  0.3374639014081275 0.6992593654951558 0  0.3218654704892305 0.6838787019487369 0  0.3880778855490822 0.3000750736829433 0  0.2912931742402398 0.4400798422436084 0  0.3879691465979038 0.6991355560636825 0  0.291276714079212 0.5592500580073548 0  0.7061951077813914 0.5816709854523746 0  0.5918364380943462 0.7070819354428981 0  0.6112226809425348 0.2993751544616707 0  0.7093977777351527 0.4393728518389576 0  0.7113110263792982 0.5107448468784375 0  0.5504154973021287 0.28174604579387 0  0.4498877230931903 0.284088551175266 0  0.4487113963358479 0.7154280913744689 0  0.5305595926571813 0.7188632976152119 0  0.288066021650754 0.4876823268932556 0  0.2974792968755716 0.3937696759505706 0  0.489987023569857 0.2825684145542554 0  0.303156412435513 0.6041286176667457 0  0.6957050974855762 0.391705898740655 0  0.4898448782762329 0.7201925519052376 0  0.6321201375882448 0.691010913374244 0  0.3484055899854447 0.3208126456196537 0  0.6516911111406356 0.3226209860370507 0  0.3487485437033603 0.6811824860582517 0  0.6928269942486646 0.6284998279352009 0  0.3128645415569475 0.3507448213152179 0  0.3148489767608896 0.6475913573851417 0  0.6698655244637012 0.6695408775243749 0  0.6873824033898758 0.3506021551374282 0  0.3680590048309554 0.6909162705443331 0  0.3781052242298006 0.6696660661827115 0  0.3982170577549038 0.6758603066901359 0  0.3869108704601931 0.6469716759863848 0  0.4081641689260814 0.6519024318455977 0  0.3951486582881718 0.6208818064867302 0  0.4208983159512958 0.6251012962026439 0  0.4050547937670945 0.588986121114478 0  0.3693490704264147 0.6151608085052997 0  0.4365927927334478 0.5917140362626757 0  0.4173561258363827 0.5513992850983128 0  0.3795336280739244 0.5553968328658527 0  0.3950253111276396 0.5146754159232724 0  0.3582931503825785 0.5164329080614787 0  0.371213782641547 0.4806482098153917 0  0.4094966146338091 0.47437849382686 0  0.3901305099404618 0.4402320159187602 0  0.4243221796957398 0.4326914959554479 0  0.4065191047985853 0.4000786059125555 0  0.4372341977823028 0.3845997244552905 0  0.3742320152086032 0.4047971811537183 0  0.4158462067767937 0.3628368231250024 0  0.4456198808761842 0.6297931806383594 0  0.4683888184496847 0.602083594103108 0  0.4852075795723972 0.6323284949557205 0  0.5017030878695207 0.6044415039754313 0  0.5175237348438997 0.6324877472215956 0  0.5342181564359998 0.6043043915676792 0  0.5495278114501669 0.6317850371154256 0  0.5665015220602827 0.6036442837908407 0  0.581995916511963 0.6328395272592148 0  0.5990849348185378 0.5946308606253193 0  0.5850421092867251 0.55
[...]
<PointData  Scalars="u"> 
<DataArray  type="Float64"  Name="u"  format="ascii">1.5466108801329336e-18  -1.4833002063426525e-18  -5.9244325402210980e-18  -6.1852759700577543e-18  2.6774543229215605e-19  -7.3542102413770258e-20  2.2930434555528748e-19  1.3295128739051747e-19  -1.2385440389608027e-01  -1.2356421715507238e-01  -1.2394575828014652e-01  -1.2436636346844812e-01  4.7495999836957251e-02  -7.8057731872431846e-18  -2.1582232904914268e-18  -4.2929134677938621e-17  -4.9910208133015549e-18  -4.7485766833357474e-18  -1.2617336530813535e-17  -2.7993895749305263e-17  -2.2738538762655981e-17  5.4882932904899686e-18  -6.7889202696732727e-17  -5.6378480596482512e-17  2.1413285796902544e-17  -1.4716639146938463e-17  -5.7016585486472144e-18  -1.7481153099732845e-17  -8.9355596537606271e-18  1.5578190351426567e-17  -2.3917069135208573e-18  -3.7193951180839254e-19  -2.9806205405376423e-18  -3.2481760148860856e-18  5.6135219509301711e-18  1.0442608653160434e-17  4.4699249890919978e-18  3.8420217388116318e-18  -2.9712794729040887e-17  -8.4043244394504100e-18  1.9336602713862142e-18  -2.6121342795073503e-17  1.0820062585863093e-17  1.7595361807498222e-17  -5.8010044289161301e-18  -1.2313060104486256e-17  -2.6752999989083770e-17  2.1965910923074727e-18  -2.3869984127647317e-17  -5.9415424977484452e-19  4.9377453759125945e-18  -1.4349013280004142e-18  1.8553328126470676e-17  -1.1458927774555748e-17  -1.3637311203843351e-17  -3.7414159603829176e-18  -1.6171973138497797e-17  -2.3134636883112078e-17  2.7312847771690869e-17  -6.3253740432067899e-18  1.6990943072741413e-18  5.0169691003271975e-18  -4.3880022986314666e-17  -1.4322045019725476e-17  -2.8178263538884934e-17  -8.2878271263195717e-18  9.0918939327582884e-18  -1.3595622934242512e-18  3.5168105906779509e-18  -3.9135274130110974e-18  0.0000000000000000e+00  1.6432193194601483e-17  -2.3590605333886013e-17  -5.5693187564667187e-18  -9.1714216749279073e-18  2.4874417130166989e-18  -5.9215939150712611e-18  -3.2998878411191937e-17  2.2118832480036346e-17  -5.0110715301224222e-17  -1.4528998335722439e-17  -3.7129452942709036e-18  -4.7802902298527086e-18  -1.9413133850101467e-17  -1.9701517708077196e-18  -5.9594658040218577e-17  -2.1956954867268754e-17  -3.7040459221450104e-18  2.1603493449087432e-17  1.7496292195733885e-19  -6.1643117226177490e-19  4.2868433242815623e-20  -1.6372385808971844e-18  -3.5201760723321033e-18  -2.9185455947391780e-18  -1.7262013808973186e-19  -1.9532940546944276e-18  -4.3155963909352203e-18  -1.0682233182432334e-18  -1.9008158483940294e-18  -5.6794571357594149e-18  -5.3885751565660526e-18  8.0630113751177839e-20  1.5030273009107441e-19  -2.6931410251935526e-18  -2.6322116988704059e-18  -5.6828436091745129e-19  1.1571982017020377e-18  3.7807185108305507e-19  -3.0913208867103152e-19  2.4390439714310344e-19  2.2252773690996269e-20  4.9917102342995478e-20  1.7460138744451704e-19  -3.5332985131056762e-19  -3.6176939314200397e-19  6.0716877307603699e-19  1.9275852244614151e-18  1.9887548166267725e-18  -1.0248252032398151e-18  -3.8085788772434919e-18  -1.2093034000845735e-18  -6.5547789026061158e-19  -2.5060136167688979e-18  8.3741017344680698e-19  2.6370319456286836e-18  -3.0938713400219132e-19  -2.5611805595054234e-18  -2.6593305943262265e-18  -1.0930901961597245e-18  -1.6572797731817713e-18  -1.1881981546225331e-18  5.1937271585363439e-19  -4.7297859885397398e-19  -2.3163680366810380e-19  -2.7853094317068397e-20  -9.9800768339423418e-19  5.4108142860338557e-19  1.2600031837633436e-18  -1.5138733446382184e-18  -1.8063918361578004e-18  -7.6430383871244967e-19  -2.6931410252114190e-18  -1.8759634548104239e-18  2.1101568917731779e-18  -8.7594712216358368e-21  3.6585173452311736e-19  -6.2195719359250599e-19  -4.3702464793311622e-18  -4.2377200482345723e-18  -1.1619383671244026e-18  3.5319109868115805e-20  3.8163406134898423e-19  4.4126034154885714e-19  1.4160245130031787e-19  -4.1274306902832088e-19  -8.1972437800758228e-19  -7.6089132849862844e-20  -7.8760860094467540e-20  -9.2405540778652522e-19  6.4158748046753547e-19  8.7351053002493919e-19  -2.2675916943182064e-18  -9.6807571154971752e-20  8.2742923567358261e-19  -2.5423854883768280e-19  -1.8169320243097269e-18  -1.8144012593979556e-18  -3.1334629541507284e-19  -4.2742423103066379e-18  -3.5255657666368085e-18  -2.4577956633733812e-19  -1.5564918304688070e-18  -1.6900168696622914e-18  -3.1378221078489253e-18  -3.4654295730485563e-18  -2.7352636045891484e-18  -2.4352573444876858e-19  2.2922883518312321e-18  5.7970611398360511e-19  -4.1418331009034481e-19  -1.2492160175035304e-01  -1.2391478062470593e-01  -1.2114375130208381e-01  -1.1760791995054544e-01  -1.1426660075021923e-01  -1.1163860410024566e-01  -1.1010816562275713e-01  -1.0945128343277157e-01  -1.1003683587920653e-01  -1.1165183360327671e-01  -1.1411770909157956e-01  -1.1734479081300786e-01  -1.2083504144524697e-01  -1.2372766870189092e-01  -1.2467291036410713e-01  -1.2555807078672795e-01  -1.2544520436410062e-01  -1.2333270405653415e-01  -1.2031913862980118e-01  -1.1720559409554576e-01  -1.1462953252162764e-01  -1.1256240843988202e-01  -1.1110746446492353e-01  -1.1032803439794528e-01  -1.1005587734235592e-01  -1.1032244835238650e-01  -1.1122637588661397e-01  -1.1263965453749059e-01  -1.1493755944114230e-01  -1.1761597360367254e-01  -1.2073644076404332e-01  -1.2372881475976577e-01  -1.2588264190447981e-01  -1.2597045274587892e-01  -1.2498234688547402e-01  -1.2412953829599460e-01  -1.2142157156743426e-01  -1.1794475776823776e-01  -1.1465466286717385e-01  -1.1208650860254696e-01  -1.1049444576691655e-01  -1.0995445470659708e-01  -1.1045035342088674e-01  -1.1200409195947114e-01  -1.1465169821001744e-01  -1.1807570613569301e-01  -1.2161427946502681e-01  -1.2443215412300798e-01  -1.2537027051233576e-01  -1.2645928118230104e-01  -1.2638002135757442e-01  -1.2429216564212064e-01  -1.2128623423137273e-01  -1.1820446370476925e-01  -1.1551518253006537e-01  -1.1323893668559867e-01  -1.1185193633170734e-01  -1.1093541470787867e-01  -1.1060831925652992e-01  -1.1087909688331499e-01  -1.1168801856632783e-01  -1.1314632916816786e-01  -1.1518258186148209e-01  -1.1776897077277604e-01  -1.2085623407657815e-01  -1.2382326027838783e-01  -1.2585375058534579e-01  -1.2589387885774478e-01  -7.7920555916189210e-02  -7.2655771091694035e-02  -7.8354144109744409e-02  -7.2852274279954665e-02  -7.8249351717945129e-02  -7.5892212295792988e-02  -7.8514924753324403e-02  -7.4629062354903200e-02  -6.9600433482137264e-02  -7.0547617737610813e-02  -6.8421906675953006e-02  -6.9391396908844105e-02  -6.8638642308949449e-02  -6.8807664724625545e-02  -8.2470868712515522e-02  -6.4245630568189493e-02  -7.7580306085931514e-02  -7.8853276740305678e-02  -6.7766285795260728e-02  -8.3450394323350691e-02  -8.5163054115961284e-02  -8.4626874324860948e-02  -8.7136288369557474e-02  -8.6355526810274988e-02  -9.1077854400938144e-02  -8.9404729784347006e-02  -9.2377879543056762e-02  -9.2098255466157936e-02  -8.2595502320427228e-02  -6.1421285608574371e-02  -5.5274014103545710e-02  -3.9366653740925510e-02  -3.1133404319964815e-02  -1.6178856513106118e-02  -6.4379232451168208e-03  4.3080747002360396e-03  -2.9732142020979398e-02  1.6263068218464887e-02  2.2975520329612600e-02  2.2870749122133409e-03  1.7817249813908042e-02  -5.7498380117232120e-03  3.3819494478449755e-03  2.4314583103207724e-02  7.4647027286042986e-03  2.1722731506615203e-02  9.0713669835358092e-04  5.6596758709086129e-03  -1.4671102035889125e-02  -1.5421319232696443e-02  -9.5230981504884323e-04  1.9561085593466299e-02  4.1851797132532237e-03  2.1058538245249846e-02  3.4815575845957010e-03  1.7820685564012652e-02  -1.4606271526021960e-03  9.3041507343208721e-03  -1.2771852820267241e-02  -4.9961863144216186e-04  1.9348187465310231e-02  1.9158544761972837e-03  1.8212601677767858e-02  -1.7887730758641973e-02  -2.2320240074963700e-02  -3.1093107504757640e-02  -2.7954357094867738e-02  -2.2369932761432738e-02  -3.4613714314005999e-02  -1.3646144193220406e-02  7.0986906737866597e-03  -5.0197760223350429e-02  -3.7089774474066042e-02  -2.4794146082825826e-02  -3.0099497769118123e-02  -1.7630008696171220e-02  9.3464858563624131e-03  -2.0786100403062436e-02  3.4269228341288200e-03  2.7370834800617420e-02  1.4420248663360237e-02  -5.8948979623443436e-03  -1.1058551589279600e-03  2.3473980296298252e-02  2.2291288908593055e-03  -1.6931908034980677e-02  -1.8049676843808860e-02  -5.5966817191774086e-03  -3.6181718589923341e-02  -4.1945026242397945e-02  -5.4977730614468076e-02  -5.5357257377629025e-02  3.3486040055380598e-02  -4.3185205856512053e-02  -4.0203941417180991e-02  -4.8520464853150203e-02  -3.4925346547667047e-02  -5.8525865044433148e-02  -5.9665825708289454e-02  -4.8956535586910072e-02  -2.3635047686286551e-02  -4.6370810476514403e-02  -5.6159876656575979e-02  -3.9132545320299222e-02  -1.6312042858639110e-02  -3.5242750438641883e-02  -3.8705003422055538e-02  -2.1747290720284491e-02  -4.0481044976632519e-02  -5.3683403642362855e-02  -5.6920100165526094e-02  -4.8059281871705647e-02  -5.0944517230013461e-02  -4.1160148360790301e-02  -6.0538543474171140e-02  -2.1553251552663015e-02  3.7211584648656412e-02  -5.7486285512618009e-02  3.7186109985656531e-02  -4.5104354676355528e-03  -3.1399271696568663e-02  -9.2281968044426576e-03  -3.3095796076871804e-02  -5.1138511070921995e-02  -5.4674902509236206e-02  -4.0651383726334415e-02  -2.0797373085574878e-02  -3.7637631440580237e-02  -4.5741227495316304e-02  2.6106163792587078e-02  -6.8253779270557105e-02  -7.1528683197403589e-02  -2.4511367565498911e-02  -4.5964495244414962e-02  -4.0851888770837765e-02  -2.8772948711017446e-02  -3.9743507200383242e-02  -5.6134367085875804e-02  -4.1033422405340469e-02  -5.2542671592720358e-02  -5.9014891991307987e-02  -6.6455274183785551e-02  -7.5621103430617925e-02  -8.1456602327552016e-02  -5.0636455271724785e-02  -6.5629746009501277e-02  -6.8747576591069087e-02  -6.6276868315847420e-02  -7.8360078144007209e-02  -8.5906212968875503e-02  -7.1324055602475234e-02  -4.7456000385525124e-02  -2.5428806205035591e-02  -7.8628755464540040e-02  -7.4424842171803077e-02  -6.8294762908066256e-02  -8.3074173389190431e-02  -6.6790864274229714e-02  -6.6771508420745834e-02  -7.4762784336548121e-02  -8.6108891367946389e-02  -6.8086272260178202e-02  -6.8735240902508668e-02  -7.6784525069810081e-02  -5.7881810868235128e-02  -7.2726261619769014e-02  -5.4112985332279644e-02  -7.0769420374417288e-02  -8.0312370509270273e-02  -8.7477525210714641e-02  -7.7336079237277811e-02  -5.9634142079176361e-02  -3.8824350453366276e-02  -6.8827833425630078e-02  -7.4849981625766823e-02  -6.0517013924246847e-02  -9.1511991017139124e-02  -9.2117015527076046e-02  -9.2149092212339051e-02  -9.2124729029239905e-02  -7.2111435685763323e-02  2.8384023432355920e-02  4.0123594461821920e-02  -4.9694796448505468e-02  -7.6221552356328118e-02  -7.8097352915608625e-02  -6.9170113837795311e-02  -8.7013333743951510e-02  -6.9395788389273058e-02  -6.4017598233435363e-02  -4.4252391108421073e-02  -2.8685285429305683e-02  -6.8121933544598751e-02  -2.9370953514078497e-02  3.4933556986270375e-02  3.4308148889590849e-02  1.1603527804620846e-02  -4.9048956569457479e-02  -6.3023696527176903e-02  -4.6887528053551557e-02  -5.1830347375920335e-02  -4.6375353601652111e-02  -7.1507795950887715e-02  -7.1228851999191253e-02  3.1789379534604534e-02  -7.1362418435362354e-02  -4.9332870136372615e-02  -5.3082320177656572e-02  -1.8973198020796337e-02  -6.3727700562141817e-02  -2.3851171220869209e-02  1.1175144845181303e-02  -7.3812397891421425e-02  4.2645997484025450e-02  -1.0322404839412401e-02  -8.0421771765722183e-02  -2.6503634538413805e-02  -4.7509267128837747e-02  -5.1288278346701334e-02  2.9086198043703590e-02  -7.2741716267894829e-02  -5.7680996569037954e-02  -4.8247750277317251e-02  4.4398437770064920e-02  -5.4420676743711115e-02  -4.1805659436064492e-02  4.0302940683297123e-02  -1.7801811996530293e-02  -4.5473661596627364e-02  4.4127516554372082e-02  -2.3864272171599681e-02  -5.8737183871282433e-02  -6.1740166740937436e-02  -3.6001791920507641e-02  -1.5818683177077474e-02  -4.7518851944832956e-02  -7.5006463458042058e-02  -2.6085657390820239e-02  -9.7728081006192485e-02  -9.8060399819190847e-02  -9.8026535670525661e-02  -9.8489554737224913e-02  -5.6907489858631650e-02  -7.1157093491962142e-02  -5.9042252447960117e-02  -6.7506159620886783e-02  -5.0345423177417650e-02  -1.1567735748953239e-02  -6.6989905575797412e-02  -6.0883345993326253e-02  -3.2520498991782706e-02  -6.0850313044029545e-03  -1.6178389407213497e-02  -3.8892850307228649e-03  -6.1705579616988804e-02  -5.8884338686146969e-03  -4.4860959563926404e-02  -3.3942485851674159e-04  4.2986202429787561e-02  -4.0456389894980412e-02  -1.7726309350302828e-02  -3.2326196529182956e-02  -4.8107391226864672e-02  -1.2409427293530215e-02  -6.0978393972103652e-03  3.5952303909212634e-02  -7.6915218989081810e-02  -1.3394123386685167e-01  -1.3410892445848166e-01  -1.4000681988236466e-01  -1.4853176948516658e-01  -1.4048463368119746e-01  -1.4963228014511762e-01  -1.3339736769925500e-01  -1.3914882500489964e-01  -1.3347165557877932e-01  -1.3961786968186349e-01  -1.4850417297074142e-01  -1.4803538770498234e-01  -7.1246374973293627e-02  -6.2748255880928069e-02  -7.5793790531729577e-02  -6.5729071003144443e-02  -1.3495575724193584e-01  -1.4603758856632101e-01  -1.4626552732729711e-01  -1.3525584555341741e-01  -1.5276777764017274e-01  -1.5846361129420672e-01  -1.3718462654572869e-01  -1.3654705985004989e-01  -1.4865517596637151e-01  -1.6504931579014670e-01  -1.7181506769543073e-01  -1.6972383162402771e-01  -1.7880462688212262e-01  -1.7816433259328460e-01  -4.3519695404951098e-02  -4.0959868907844137e-02  -4.2686780893151872e-02  -4.1839041972020395e-02  -8.0569721304226155e-02  -7.9720850894919273e-02  -8.2733022589001851e-02  -1.8197220815368090e-01  -1.8098191459119706e-01  -1.7492492418703737e-01  -1.6969148375255078e-01  -8.4690586712480198e-02  -8.5730169590114730e-02  -8.3849777932802946e-02  -7.8467209436991633e-02  -8.2135623579496927e-02  -7.8585685593198201e-02  -9.2197861197274758e-02  -4.9316057168986238e-02  -1.7494616193127757e-01  -1.7091948461897719e-01  -5.7138328048076135e-02  -4.9274178106381697e-02  -5.6587821724075997e-02  -1.5308990367051131e-01  -1.5733251272629933e-01  -1.6579945034268659e-01  -1.7181755382948527e-01  -1.7625229156605529e-01  -1.7983152485911613e-01  -1.7595336174485518e-01  -1.8035404446485245e-01  -1.7811553632399091e-01  -1.7976416791449720e-01  -1.5352648147222028e-01  -1.5839850159197658e-01  -1.6631392569976741e-01  -1.7228412574220456e-01  -1.6851341048118135e-01  -1.7672722401048346e-01  -1.8027571269221718e-01  -1.8085403616717557e-01  -1.7856914953146183e-01  -1.8029229451849671e-01  -1.4220910784680227e-01  -1.5241925601099404e-01  -1.5801981195013015e-01  -1.6466202082831857e-01  -1.7145700213731055e-01  -1.6929701376888884e-01  -1.7818793080399475e-01  -1.7760197192305152e-01  -1.8144066919290303e-01  -1.8060951868391237e-01  -1.3387356800423542e-01  -1.3385615604401252e-01  -1.3952589742215943e-01  -1.4001374701286115e-01  -1.7861486235094334e-01  -1.7710768594945589e-01  -1.7466511132700574e-01  -1.7848141446196869e-01  -1.7678027508873292e-01  -1.7479004875280224e-01  -7.9319111498209999e-02  -1.7541364632912904e-01  -1.7781162726094252e-01  -1.7873522114681201e-01  -1.7595374269308950e-01  -1.7735294665437942e-01  -1.8104275415770571e-01  -1.4243884307091356e-01  -1.6562128985762767e-01  -1.6556184987435976e-01  -6.4534616554907498e-02  -6.0753952948387438e-02  -6.4443959208182883e-02  -1.6724295606419054e-01  -1.6825245970583036e-01  -1.6756001553865191e-01  -1.6439657202353888e-01  -1.6829250986710420e-01  -1.7073346456891694e-01  -1.6845052311128875e-01  -1.7085553483957650e-01  -1.6185852473020634e-01  -1.6946052747663171e-01  -1.5560374130395133e-01  -1.6396797554923004e-01  -1.4859316349633145e-01  -1.5552326808129935e-01  -1.6155154574120825e-01  -1.6821393213592115e-01  -1.5455005597327121e-01  -1.6130162080222793e-01  -1.4694757392588897e-01  -1.5427454706498933e-01  -1.3976714197450193e-01  -1.4833077279259282e-01  -1.3372551893024415e-01  -1.4402462454099360e-01  -1.2996487726023692e-01  -1.4205589765262006e-01  -1.2851641501385194e-01  -1.4244915631917768e-01  -1.4092131546022235e-01  -1.4927015015787254e-01  -1.3461415390241199e-01  -1.4488362260296672e-01  -1.3073228520873409e-01  -1.4284998232390300e-01  -1.2906653977159524e-01  -1.4312498950619781e-01  -1.6670831213416212e-01  -1.6826086933579737e-01  -1.6788459044745149e-01  -1.6852852891695114e-01  -1.6698195819352585e-01  -1.6783273382776945e-01  -1.3030560636776714e-01  -1.4530572240232587e-01  -1.3370110030524937e-01  -1.4986818344383243e-01  -1.3869997131853640e-01  -1.3072307515299053e-01  -1.4582494794684939e-01  -1.3390341334922531e-01  -1.5038397046337329e-01  -1.3909193772768880e-01  -1.8022533203851798e-01  -1.7395026348140386e-01  -1.7266208109627304e-01  -1.5294317156242204e-01  -1.5804436213772458e-01  -1.5220048143605730e-01  -1.5722298924284689e-01  -1.4734991384124788e-01  -1.4310886219599298e-01  -1.4631373236011197e-01  -1.4337911101748127e-01  -1.5029211909723864e-01  -1.0819307316873909e-01  -1.4924757447908094e-01  -1.5389559181881388e-01  -1.4593660567992869e-01  -1.5055913654956554e-01  -1.0888013331052286e-01  -1.5577950695034817e-01  -1.4426423468391580e-01  -1.5983205182868365e-01  -1.4972206167271462e-01  -1.5889618138910161e-01  -1.5059499461904105e-01  -1.5141046823634838e-01  -1.4704239924558943e-01  -1.6161656196563512e-01  -1.4792329615481065e-01  -1.6294948073654025e-01  -1.2180461685451408e-01  -1.7202407209347154e-01  -5.1385114384646706e-02  -1.6376391006357952e-01  -1.7386525738795600e-01  -1.2294576355585392e-01  -1.4475588831334785e-01  -1.5632337807847191e-01  -1.2179581754695119e-01  -1.6125228238420106e-01  -1.6180039907295843e-01  -1.5964339137800898e-01  -1.6950001456705296e-01  -1.6503881401790771e-01  -1.7107895020714203e-01  -1.6670284404973731e-01  -1.6556268404293395e-01  -1.6131736792038781e-01  -1.7109091113666836e-01  -1.6143250189263128e-01  -1.5764720369776872e-01  -1.5695403423655221e-01  -1.5460623754751687e-01  -1.5419225786314930e-01  -1.5303573074941365e-01  -1.5258671540715663e-01  -1.5835264002552518e-01  -1.5814564819877835e-01  -1.4747563038846051e-01  -1.6253590325359146e-01  -1.5897955297700370e-01  -1.5556921896894346e-01  -1.2448418140314658e-01  -1.5388509092673122e-01  -1.4256982342900584e-01  -1.4453346859767960e-01  -1.4342649789961653e-01  -4.7049362550754120e-02  -5.4793069515201340e-02  -5.1011942988707891e-02  -1.5633037203615022e-01  -1.5079164025284400e-01  -1.7743164904745395e-01  -1.6727530313631855e-01  -1.7267152731863933e-01  -1.3310985535769565e-01  -1.3297859633841316e-01  -1.3632905391334130e-01  -1.5713784596585131e-01  -1.6479769281710621e-01  -1.6832864016149079e-01  -1.6417966704838938e-01  -1.5466518569961935e-01  -1.5816341956500704e-01  -1.5723764996026376e-01  -1.5508615820497679e-01  -1.5258355119971515e-01  -1.5376826035277794e-01  -1.4541267041875702e-01  -1.5168833396761530e-01  -1.5090738817882379e-01  -1.5274533775414434e-01  -1.4969900032125277e-01  -1.5524444570935664e-01  -1.4781245751444197e-01  -1.5744295638647601e-01  -1.5582433114812391e-01  -1.6105421416863827e-01  -1.5933076216159511e-01  -1.6648891483701964e-01  -1.5976131539327604e-01  -1.7188954421205446e-01  -1.5701837614879877e-01  -1.7061187558530050e-01  -1.5179604461300517e-01  -1.5735877499644985e-01  -1.4852956289200481e-01  -1.6724631815440449e-01  -1.6453325031721000e-01  -1.4617545022767336e-01  -1.4276621295625969e-01  -1.5093628190835032e-01  -1.4767156677833848e-01  -1.6539900233999227e-01  -1.4912187936097346e-01  -1.6387321573891808e-01  -1.4215414512300961e-01  -1.4460949364445114e-01  -1.5286872890025374e-01  -1.6739378999794299e-01  -1.4535439839169823e-01  -1.6343694062004463e-01  -1.4727266808323586e-01  -1.1271859691337048e-01  -1.1801195930732997e-01  -1.4379767894357967e-01  -1.5497759746429551e-01