<?xml version="1.0"?>
<VTKFile type="UnstructuredGrid"  version="0.1"  >
<UnstructuredGrid>
<Piece  NumberOfPoints="1297" NumberOfCells="2496">
<Points>
<DataArray  type="Float64"  NumberOfComponents="3"  format="ascii">0 0 0  0 1 0  1 1 0  1 0 0  1.1 -0.1 0  -0.1 -0.1 0  1.1 1.1 0  -0.1 1.1 0  0.2898321979500428 0.6795182388431896 0  0.289856328773569 0.3196950173950724 0  0.7103346447853582 0.3200752791142067 0  0.7103558310536792 0.6794000332299214 0  0.4999470677812953 0.4996653816495698 0  0 0.9499999999997918 0  0 0.8999999999995836 0  0 0.8499999999996529 0  0 0.7999999999999998 0  0 0.7500000000003466 0  0 0.7000000000006934 0  0 0.6500000000010401 0  0 0.6000000000013869 0  0 0.5500000000017335 0  0 0.5000000000020587 0  0 0.4500000000018723 0  0 0.4000000000016644 0  0 0.3500000000014564 0  0 0.3000000000012483 0  0 0.2500000000010403 0  0 0.2000000000008322 0  0 0.1500000000006241 0  0 0.100000000000416 0  0 0.05000000000020799 0  0.04999999999989965 0 0  0.09999999999981467 0 0  0.1499999999997036 0 0  0.1999999999995579 0 0  0.2499999999994121 0 0  0.2999999999992664 0 0  0.3499999999991206 0 0  0.3999999999989749 0 0  0.4499999999988292 0 0  0.4999999999986943 0 0  0.5499999999988151 0 0  0.5999999999989468 0 0  0.6499999999990784 0 0  0.69999999999921 0 0  0.7499999999993417 0 0  0.7999999999994734 0 0  0.8499999999996051 0 0  0.8999999999997368 0 0  0.9499999999998684 0 0  1 0.04999999999989965 0  1 0.09999999999981467 0  1 0.1499999999997036 0  1 0.1999999999995579 0  1 0.2499999999994121 0  1 0.2999999999992664 0  1 0.3499999999991206 0  1 0.3999999999989749 0  1 0.4499999999988292 0  1 0.4999999999986943 0  1 0.5499999999988151 0  1 0.5999999999989468 0  1 0.6499999999990784 0  1 0.69999999999921 0  1 0.7499999999993417 0  1 0.7999999999994734 0  1 0.8499999999996051 0  1 0.8999999999997368 0  1 0.9499999999998684 0  0.9499999999997918 1 0  0.8999999999995836 1 0  0.8499999999996529 1 0  0.7999999999999998 1 0  0.7500000000003466 1 0  0.7000000000006934 1 0  0.6500000000010401 1 0  0.6000000000013869 1 0  0.5500000000017335 1 0  0.5000000000020587 1 0  0.4500000000018723 1 0  0.4000000000016644 1 0  0.3500000000014564 1 0  0.3000000000012483 1 0  0.2500000000010403 1 0  0.2000000000008322 1 0  0.1500000000006241 1 0  0.100000000000416 1 0  0.05000000000020799 1 0  -0.1 1.05000000000004 0  -0.1 1.000000000000079 0  -0.1 0.9500000000001624 0  -0.1 0.9000000000003032 0  -0.1 0.850000000000444 0  -0.1 0.8000000000005848 0  -0.1 0.7500000000007256 0  -0.1 0.7000000000008665 0  -0.1 0.6500000000010508 0  -0.1 0.6000000000012352 0  -0.1 0.5500000000014196 0  -0.1 0.500000000001539 0  -0.1 0.4500000000014195 0  -0.1 0.4000000000013 0  -0.1 0.3500000000011588 0  -0.1 0.3000000000010178 0  -0.1 0.2500000000008986 0  -0.1 0.2000000000007579 0  -0.1 0.1500000000006174 0  -0.1 0.1000000000005272 0  -0.1 0.05000000000040083 0  -0.1 2.671196597248127e-13 0  -0.1 -0.0499999999998666 0  -0.0500000000000906 -0.1 0  -1.730560139634463e-13 -0.1 0  0.04999999999975802 -0.1 0  0.09999999999961506 -0.1 0  0.1499999999994613 -0.1 0  0.199999999999302 -0.1 0  0.2499999999991446 -0.1 0  0.2999999999990088 -0.1 0  0.3499999999988296 -0.1 0  0.3999999999986936 -0.1 0  0.4499999999985143 -0.1 0  0.4999999999984002 -0.1 0  0.5499999999985247 -0.1 0  0.5999999999986493 -0.1 0  0.6499999999987955 -0.1 0  0.6999999999989417 -0.1 0  0.7499999999990659 -0.1 0  0.7999999999992116 -0.1 0  0.8499999999993573 -0.1 0  0.8999999999994526 -0.1 0  0.949999999999584 -0.1 0  0.9999999999997226 -0.1 0  1.049999999999861 -0.1 0  1.1 -0.0500000000000906 0  1.1 -1.730560139634463e-13 0  1.1 0.04999999999975802 0  1.1 0.09999999999961506 0  1.1 0.1499999999994613 0  1.1 0.199999999999302 0  1.1 0.2499999999991446 0  1.1 0.2999999999990088 0  1.1 0.3499999999988296 0  1.1 0.3999999999986936 0  1.1 0.4499999999985143 0  1.1 0.4999999999984002 0  1.1 0.5499999999985247 0  1.1 0.5999999999986493 0  1.1 0.6499999999987955 0  1.1 0.6999999999989417 0  1.1 0.7499999999990659 0  1.1 0.7999999999992116 0  1.1 0.8499999999993573 0  1.1 0.8999999999994526 0  1.1 0.949999999999584 0  1.1 0.9999999999997226 0  1.1 1.049999999999861 0  1.05000000000004 1.1 0  1.000000000000079 1.1 0  0.9500000000001624 1.1 0  0.9000000000003032 1.1 0  0.850000000000444 1.1 0  0.8000000000005848 1.1 0  0.7500000000007256 1.1 0  0.7000000000008665 1.1 0  0.6500000000010508 1.1 0  0.6000000000012352 1.1 0  0.5500000000014196 1.1 0  0.500000000001539 1.1 0  0.4500000000014195 1.1 0  0.4000000000013 1.1 0  0.3500000000011588 1.1 0  0.3000000000010178 1.1 0  0.2500000000008986 1.1 0  0.2000000000007579 1.1 0  0.1500000000006174 1.1 0  0.1000000000005272 1.1 0  0.05000000000040083 1.1 0  2.671196597248127e-13 1.1 0  -0.0499999999998666 1.1 0  0.280372999172269 0.6637501851976453 0  0.2769871067056149 0.6425535266094961 0  0.2750827649990362 0.619850657877107 0  0.2738082899858593 0.5962980328096391 0  0.2730022821937103 0.5723556987848715 0  0.27243037399326 0.5482167401256975 0  0.2721044996183193 0.5239465244987616 0  0.2720141018764942 0.4996439582266761 0  0.2721392275958593 0.4753248493043755 0  0.2724623305301433 0.4510292913734772 0  0.2730259549474734 0.4268660349840955 0  0.2738629527342839 0.4029165061535545 0  0.2751357495155204 0.3793645819087508 0  0.2770592670779886 0.3565948768265683 0  0.2804135689597214 0.3354078702562109 0  0.3048716166072282 0.3067565484798727 0  0.3247633600014481 0.2996916572046284 0  0.3462600902537576 0.2941903401896288 0  0.3683446897442159 0.2895658046345718 0  0.3905041519693809 0.2857595672588057 0  0.4125749094908758 0.2824955722438925 0  0.4345080057615057 0.2797903881595243 0  0.4563937305439788 0.2777692960772825 0  0.4782423478575402 0.2765591137527597 0  0.5000718849773449 0.2761776189188929 0  0.5218952407050348 0.2766346775112913 0  0.5437472535598945 0.2778867881967231 0  0.5656685609162274 0.2798659243449768 0  0.5876156905105725 0.2826679428476907 0  0.6097741691933084 0.2859733632880634 0  0.6319870952615244 0.2898501001136293 0  0.6540142363238499 0.2944971790573386 0  0.6754312780105771 0.2999865785826291 0  0.6952269510038099 0.3070869634017976 0  0.7195680988761232 0.3359975449487603 0  0.722915422116702 0.3569835828485899 0  0.7247757329821951 0.3796749060131339 0  0.7259887135416446 0.4031864071139248 0  0.7267838390270227 0.4270994972795145 0  0.7273151126462929 0.4512143526822101 0  0.7276101509233702 0.4754432109537602 0  0.7276858136974799 0.4997227510988355 0  0.7275631485755025 0.5240076041666177 0  0.7272728852923838 0.5482267839659349 0  0.7267807415201641 0.5723423836336945 0  0.7260334346716323 0.5962516730532484 0  0.7248084673860954 0.6197675326788852 0  0.7229441561990326 0.6424805780998514 0  0.7196102604987227 0.6634867945954029 0  0.6952671554053477 0.6923138871012749 0  0.6754856087584344 0.6993718750226143 0  0.6540852134685071 0.7048898563266247 0  0.6320312236422888 0.7095146175371057 0  0.6097850510153774 0.7134206633774641 0  0.5875762387978928 0.7167031556553953 0  0.5656148829361609 0.7195034255693232 0  0.5436860944695123 0.7214857207678289 0  0.5218334287075899 0.7227108491370687 0  0.500029392815778 0.7231369117118143 0  0.4782135963500387 0.7227386140241582 0  0.4563634270133312 0.7215071896440819 0  0.4344799534619039 0.7194759495026998 0  0.4124937068981672 0.7167792281975526 0  0.3903518774950871 0.7135261803479095 0  0.3681866349499596 0.7096910992641001 0  0.3461303741407994 0.7050706206093442 0  0.3246566339293957 0.6995671351219657 0  0.3047915026467007 0.6924525347149357 0  0.3798978898063026 0.3113363573724279 0  0.293534930542787 0.4384321552717693 0  0.3797893041327248 0.6879280207019329 0  0.2935097820241283 0.5608340803540639 0  0.7070612297261636 0.5844873586994304 0  0.5983113728843712 0.6922343718257927 0  0.6193676066246326 0.3109784149953745 0  0.7077209346000785 0.4378741685133979 0  0.7074512138167435 0.5113286913432294 0  0.5539057804339215 0.3015662585633819 0  0.4464777785885038 0.3035288284851785 0  0.4451619551202297 0.6961281776472448 0  0.5326499793146197 0.6981400889040277 0  0.2928220876892577 0.4873635545975504 0  0.2936932074972878 0.390188404630703 0  0.4893461246593186 0.3035844166922853 0  0.2992518420627062 0.6073892497781098 0  0.7007442282731392 0.388296832603341 0  0.4891406495449012 0.698838184952381 0  0.6423165531944677 0.6843281357935732 0  0.3359476721921514 0.3219653651183672 0  0.6644254772354756 0.32370116539927 0  0.3364112813581259 0.6796579368975139 0  0.7021933837848042 0.6338335588024719 0  0.2990710627674658 0.3441833507640124 0  0.3014485104268932 0.6537591883940801 0  0.6848791771891446 0.6741491510805789 0  0.7016717046957932 0.3440562251870514 0  0.3579368967983279 0.684112907493334 0  0.3692855238810853 0.6631018666397646 0  0.3909458512898221 0.6659123883897844 0  0.3797065809161407 0.6410841114646886 0  0.4022236765877917 0.6432599001016007 0  0.3898976770916568 0.6158691286929311 0  0.4166827646195752 0.6177477063454456 0  0.4017049316071069 0.5851698385135672 0  0.3634332216221978 0.6129930635618479 0  0.4341197949798429 0.5861066307331488 0  0.41546413241987 0.5490034528973851 0  0.3775638253203062 0.5541679550215557 0  0.3938928996672938 0.5142366798887055 0  0.3581433238366001 0.5163057566854523 0  0.3705762556012877 0.4809650934640255 0  0.408130446225367 0.4754415390649798 0  0.3879376899140192 0.4420490517296094 0  0.422171136900322 0.4362192962631883 0  0.4027479047924051 0.4046794746359023 0  0.4341557621208618 0.392149468368317 0  0.3700287725246794 0.4067833887780529 0  0.4109550552334468 0.3708629359206305 0  0.4426052362667801 0.6205678851470863 0  0.4670764465624074 0.5946168778916824 0  0.4844805143275138 0.6216820097383322 0  0.5019978258171423 0.5964089099501733 0  0.5187219941740532 0.621863098710672 0  0.5360910345653318 0.5967091012722872 0  0.5525941775206391 0.6221907833981666 0  0.5698214434011331 0.5973093599097598 0  0.5870112832122606 0.6251186966186076 0  0.6032423123791151 0.5908407549387331 0  0.58769
[...]
<PointData  Scalars="u"> 
<DataArray  type="Float64"  Name="u"  format="ascii">-5.3183850283139888e-20  -2.9951476671400742e-19  8.9819903927967774e-19  -5.7791499648701301e-18  3.0861809674427700e-19  -7.1292831422032866e-21  -2.5035698903991512e-20  4.6696468952180912e-20  -1.4652749789990335e-01  -1.4628144744073479e-01  -1.4641062872901944e-01  -1.4676333079971901e-01  3.0988240778190301e-02  -4.9006495687269838e-18  -2.1036638939598941e-17  2.5881655484916902e-18  -3.3297025742580913e-18  -9.6856333061050000e-18  -2.8544161522765440e-17  -1.4583635201541928e-17  1.4349079357727179e-17  2.7300619212978876e-17  -3.3694044871997363e-17  -2.0376128533543096e-17  1.0576629926510386e-18  -5.5277130510080597e-18  -6.7029203408993379e-18  0.0000000000000000e+00  3.9119155540624290e-18  -7.4705125122436895e-18  4.7022816214682304e-18  3.3985947544481975e-18  -4.5732617142547317e-18  -1.3306514535995859e-18  -2.3991039191863870e-18  -3.0971100222548061e-18  0.0000000000000000e+00  -1.8625169300944381e-18  -4.2530730393810613e-18  -1.5437152651669918e-18  -2.7661303006005515e-18  -1.0928944853229557e-17  1.6231677239718602e-18  -1.1433077152122201e-18  -1.7063692662073208e-18  2.3850983825214147e-18  -1.9780214862290073e-17  -4.6050662006375760e-18  -1.0827099792702424e-17  -6.0981252940985960e-18  -5.9063269935901076e-20  1.1652722504523010e-17  1.2372082782380348e-17  -4.9117623288354870e-18  0.0000000000000000e+00  -1.1618461671559731e-17  -7.6106447928321437e-18  -2.1004808364590267e-17  -7.1985349832355261e-18  1.0146120355331799e-17  5.3391674683206616e-18  -6.8788607144848318e-18  -1.8914317939718095e-17  -4.3920482042863727e-18  4.3592492466691921e-18  5.4974551194263741e-18  9.3071238015443594e-19  -6.0245675974538016e-18  -8.4229066204109728e-18  2.9508284471030361e-18  -1.4601267241740495e-18  -3.6669513161253324e-19  -9.2802722583016008e-18  -2.8162204990536728e-18  6.9185542839000485e-18  1.2059981469167377e-17  8.5823738426463685e-18  -2.7411575576685910e-17  9.2291324807808523e-18  -2.1553704553316404e-17  -1.1598873230517829e-18  9.1320169575073350e-19  -1.5031819009981564e-18  4.1020103049682502e-18  -9.0243045280273371e-20  -1.7583539474747367e-17  4.9955377478566295e-19  -2.6091789012584209e-18  5.9271951222502865e-18  -9.1746380828475486e-21  1.3907712074804682e-19  -1.2341949834887442e-18  -2.1915011899172385e-18  -3.9934599164876427e-19  2.0583230396475680e-19  -1.7870677934138289e-18  -3.6572151393106446e-18  -2.2527577566105353e-18  2.7691636926427527e-18  1.9422387141596735e-18  -2.1441368638284029e-18  -2.2133472100639360e-18  -5.6177368108622805e-19  -3.0398683763691501e-19  -1.5175635935614464e-18  -4.3334896050903948e-19  5.5247227566788431e-19  -3.4146313447447501e-19  2.1600994279103231e-19  6.2586215906228731e-19  2.0997746624964885e-21  -3.8064388502772280e-20  7.4740894916964548e-20  -1.4415923917720216e-19  -4.7180438608857454e-19  -3.0490652133006709e-19  -3.7589279589144721e-19  -1.8072509885603164e-19  1.6491931222249607e-19  -9.2725800835684823e-19  -7.6458714710765891e-19  -1.2742807283090050e-19  -6.0365129452293069e-19  -1.3887492126260976e-18  -2.2587334622416733e-19  -3.1364149491551902e-19  -2.1152464587186985e-20  -3.8005071154936999e-19  -1.8710067379456073e-18  -1.5187707114476914e-18  -1.2607632961204677e-18  -1.1413008306388735e-18  -4.1582080301100829e-19  -4.0541663783696923e-19  -1.6815717721750873e-19  -2.7882558646391715e-19  -4.1672665579517369e-19  1.5117901754034251e-18  1.5006592471452781e-18  -4.0170650092159061e-19  -5.5936036563888671e-19  -9.8492947335441438e-19  -1.9450462959860250e-18  -3.0625442784522307e-18  3.8191356276020622e-19  1.3679555800385777e-18  8.0596695668233500e-19  -1.1474470184933256e-18  -2.4856852374373123e-18  -1.0884492194051601e-18  9.5128171576994399e-19  1.1003296789576591e-18  7.4552435853875685e-21  -9.0109285296596781e-19  -1.0517899399795416e-18  4.9971566651608812e-20  3.2009295420530850e-19  -6.1800632203766445e-20  5.4404179873590050e-20  3.0128771891810558e-20  -8.2915562345785652e-21  -4.8768387516077518e-19  -1.2857705158371837e-18  5.9865475225623038e-19  1.6454936011279081e-18  1.8469859528466246e-18  5.5431902081590834e-21  -1.3668074838316466e-18  -6.2286354851312690e-19  -1.5869548640757561e-18  -8.5698709392045716e-19  -2.1372136203246793e-20  -2.4552010064271716e-19  -1.0193752547169378e-19  -7.7607225366830550e-19  -8.8738087300038502e-19  -1.1992026390284628e-19  -2.5502858195665439e-20  5.0929836284290242e-19  2.6550473641928646e-19  -1.4156093004641688e-19  -1.4446194111564842e-01  -1.3816858370295149e-01  -1.3147635522773704e-01  -1.2527981723724324e-01  -1.2027717241152597e-01  -1.1661311679098715e-01  -1.1440246685160468e-01  -1.1356464937667510e-01  -1.1435183694144149e-01  -1.1660752996983587e-01  -1.2013491835104778e-01  -1.2506945450482110e-01  -1.3126232263409413e-01  -1.3802690692071445e-01  -1.4426224840993457e-01  -1.4593129622341680e-01  -1.4155499584461795e-01  -1.3615110325627225e-01  -1.3090273785782625e-01  -1.2632887486758418e-01  -1.2281365409048957e-01  -1.2010884494362170e-01  -1.1820184234220904e-01  -1.1715354392878344e-01  -1.1677936120834026e-01  -1.1711385488285980e-01  -1.1824924517298438e-01  -1.2003262827744537e-01  -1.2292269170732767e-01  -1.2648041910421892e-01  -1.3100482795309140e-01  -1.3624166005389970e-01  -1.4170184474879755e-01  -1.4603900549159021e-01  -1.4418033695222210e-01  -1.3805887264052877e-01  -1.3139473708867111e-01  -1.2521898054484179e-01  -1.2024840921536308e-01  -1.1664351984712007e-01  -1.1445084810806355e-01  -1.1375224712307211e-01  -1.1456021126726046e-01  -1.1674160947213164e-01  -1.2043707594870215e-01  -1.2546795298914065e-01  -1.3161765179465501e-01  -1.3833382672246683e-01  -1.4449731031236518e-01  -1.4642089160111865e-01  -1.4205277004372463e-01  -1.3665906509308953e-01  -1.3137728240199684e-01  -1.2690050267857761e-01  -1.2331441531262212e-01  -1.2044951510192789e-01  -1.1869821703186081e-01  -1.1756931570286319e-01  -1.1718786571449565e-01  -1.1756733954904322e-01  -1.1865208225814737e-01  -1.2058423848114694e-01  -1.2324248605480288e-01  -1.2676743597863918e-01  -1.3132344744745922e-01  -1.3656369606026930e-01  -1.4191865913988089e-01  -1.4625052087795248e-01  -8.9773589608313664e-02  -8.0644690303514746e-02  -9.0107587516899498e-02  -8.0827787570336554e-02  -8.7310621494793447e-02  -8.5709143025521933e-02  -8.9941730750653939e-02  -8.2111965507492168e-02  -7.5794336370340248e-02  -7.8630015510331441e-02  -7.6786263465552590e-02  -7.7683764494064028e-02  -7.6216767394489071e-02  -7.5275215281518579e-02  -9.4655818052039500e-02  -7.2054279008668065e-02  -9.0106242012845394e-02  -9.1600817522927105e-02  -7.5187991385792075e-02  -9.7463971818099127e-02  -1.0331970027093730e-01  -1.0266004947644433e-01  -1.0489360714604953e-01  -1.0275418719324909e-01  -1.1177531225209804e-01  -1.0991993370311504e-01  -1.1316271920766452e-01  -1.1248909587940784e-01  -9.6985868153376495e-02  -7.6029396410348254e-02  -6.8243607250105268e-02  -5.3973353430918011e-02  -4.5644512580172290e-02  -3.1441437283800285e-02  -2.1370632930594966e-02  -1.1146020602244231e-02  -4.4331006543272322e-02  8.5908333306687222e-04  7.2973447159902956e-03  -1.2393769483341387e-02  2.9116535709098517e-03  -1.9378227164780128e-02  -1.0575592140301199e-02  8.7932076167511943e-03  -7.5489006888345917e-03  5.9715813905930658e-03  -1.4591891965503374e-02  -9.0741348403205711e-03  -2.9875781059215924e-02  -3.0453921997003319e-02  -1.5157701273188703e-02  4.4656813240604824e-03  -9.5070568441624100e-03  6.0005944838437521e-03  -1.0017248252353325e-02  2.8561074592860143e-03  -1.5370717330428160e-02  -5.5718494044503970e-03  -2.7650411794865534e-02  -1.5786434211776956e-02  3.9041261715171659e-03  -1.2600905464879257e-02  3.3735767349616801e-03  -3.2557485284533158e-02  -3.5878779081129020e-02  -4.4266290124215915e-02  -4.0261333049922764e-02  -3.5597169840386841e-02  -4.5592712371508269e-02  -2.7783588224102755e-02  -7.0344850409474122e-03  -6.2200168586755797e-02  -4.9699428919586792e-02  -3.7086927124763691e-02  -4.2115397315070774e-02  -3.0909833730387207e-02  -4.6860531838642900e-03  -3.3726947166143391e-02  -1.0407493292331347e-02  1.1775806145023045e-02  -4.9499651393316148e-04  -2.0054557765837581e-02  -1.5987845417059766e-02  7.8310536669214982e-03  -1.3044652866788969e-02  -3.1926251142358780e-02  -3.2738730625293880e-02  -2.0109139690245730e-02  -5.0882456284995811e-02  -5.5810970958826596e-02  -7.1418645294695784e-02  -7.1732090066721307e-02  1.7642229064465678e-02  -5.6059843965092698e-02  -5.4861309561471325e-02  -5.9345825483388272e-02  -4.6061864855188255e-02  -7.3063352481568047e-02  -7.6873873984518531e-02  -6.4623296228088101e-02  -3.6502690762882248e-02  -5.6203156967728291e-02  -6.5086859883137740e-02  -5.0315963510097587e-02  -3.0374709181577163e-02  -4.8909289685425170e-02  -5.3759441618400461e-02  -3.4283676349319912e-02  -5.1506170354601227e-02  -6.7947193518307858e-02  -7.4136053423993944e-02  -6.4346164011051241e-02  -6.0887485042380049e-02  -5.3517882355916736e-02  -6.8316996314247327e-02  -3.6066662719434442e-02  2.1130961643715262e-02  -6.8943901096061702e-02  2.1057487549939621e-02  -1.8041934667279963e-02  -4.2316621788571290e-02  -2.2482806842930431e-02  -4.3950220204141292e-02  -5.9555812861383471e-02  -6.3206075116277613e-02  -5.1916233671614166e-02  -3.5999277129987066e-02  -5.1710938473027254e-02  -5.5225468331865341e-02  1.0617958628473336e-02  -8.6284814529206805e-02  -8.8582899198706780e-02  -3.9107357119470020e-02  -5.9876763434450225e-02  -5.5251677161630930e-02  -4.3257714529388216e-02  -5.2007177634041710e-02  -6.8800049385031842e-02  -5.4988855705930567e-02  -6.9241552576606524e-02  -7.1084669702685191e-02  -8.3967861407429747e-02  -9.5212849811375663e-02  -9.5971861141031720e-02  -5.9305329301761751e-02  -7.3272622821470360e-02  -7.6413131298101733e-02  -8.3788097521736354e-02  -9.8004791826952195e-02  -1.0246792150554987e-01  -8.0461390446815842e-02  -5.8575329657976426e-02  -3.9591161117494611e-02  -9.1147586868264588e-02  -8.4632502072932034e-02  -7.7541589231450783e-02  -9.6977120344811416e-02  -7.6296648326567004e-02  -7.4653139727626591e-02  -8.4959812624087652e-02  -1.0235370724557184e-01  -8.4218127137908119e-02  -7.6030656687075315e-02  -8.6013023234572661e-02  -6.8335000286873879e-02  -8.1503739575187306e-02  -6.5478677387964729e-02  -7.8768359841010091e-02  -9.1590179461049095e-02  -1.0501198308353413e-01  -9.6702341716828705e-02  -7.1967894172243932e-02  -4.9461509652930093e-02  -8.5779776690769319e-02  -8.4842338174649617e-02  -7.5079114398183433e-02  -1.1267027295668847e-01  -1.1321210962457456e-01  -1.1244646660644574e-01  -1.1303467373869636e-01  -7.9986326869516261e-02  1.2518348401417433e-02  2.3967908891833565e-02  -5.8575088925190470e-02  -8.5541806441173110e-02  -8.7493455912784748e-02  -8.5009751103522491e-02  -1.0342342307742312e-01  -7.6991542304306812e-02  -7.8112396531218570e-02  -5.4276443977063910e-02  -4.2276834863703268e-02  -7.5536779528257159e-02  -4.0664268754265404e-02  1.8876994733917365e-02  1.8244666922655486e-02  -3.1521110009096968e-03  -6.5164408899916024e-02  -7.7283297909854956e-02  -5.6673333497094892e-02  -6.3851263105641654e-02  -5.6800721779903141e-02  -7.7572409806738782e-02  -7.7194096519552100e-02  1.5906459098259433e-02  -8.7918517938580035e-02  -5.9232831074811289e-02  -6.4855932038253364e-02  -3.3452571786560782e-02  -7.5493145232756534e-02  -3.7240334128539297e-02  -3.0132242353440642e-03  -8.0083086491135422e-02  2.6357577979329330e-02  -2.5647350742822646e-02  -1.0013338988985621e-01  -3.9613865282763977e-02  -5.7662474931557295e-02  -6.1748292850862883e-02  1.3370435530009089e-02  -7.9610349626533919e-02  -7.0510319766149271e-02  -5.7672843145482128e-02  2.8076463641646975e-02  -6.4751467746344438e-02  -5.6414046149133201e-02  2.4104773802093978e-02  -3.1019317953349442e-02  -5.5552199706336070e-02  2.7742057367363234e-02  -3.6644532424949555e-02  -6.9121924039806965e-02  -7.3830612037286858e-02  -4.9943511284429462e-02  -2.9294890594092019e-02  -5.8396892316564669e-02  -8.1209759962664690e-02  -3.9196518278386439e-02  -1.1987675732581148e-01  -1.1996408920712127e-01  -1.2010800302941264e-01  -1.2028977518616289e-01  -7.1330934141974903e-02  -8.7813049611327784e-02  -6.7946949117985225e-02  -8.0002510034904564e-02  -6.0841136158863489e-02  -2.5881666874723489e-02  -8.5095420978467812e-02  -7.5679717593595194e-02  -4.7123667541120434e-02  -1.9861717884411666e-02  -2.9864915799432165e-02  -1.7466380593265017e-02  -7.2040877902234415e-02  -1.9698487387621109e-02  -5.7308116974293145e-02  -1.4188428373354097e-02  2.6727338906476526e-02  -5.2670557616208494e-02  -3.2205139935080535e-02  -4.6098098065292838e-02  -5.7668160299617764e-02  -2.5713496175893337e-02  -2.0046467889500756e-02  1.9999326359521234e-02  -9.5314179060294685e-02  -1.4232603851164125e-01  -1.4263665014784385e-01  -1.4946340027989202e-01  -1.6152182130397888e-01  -1.4973495545059573e-01  -1.6219771200942856e-01  -1.4205829721633922e-01  -1.4867900902733103e-01  -1.4207060933592711e-01  -1.4901077451265377e-01  -1.6123043633828074e-01  -1.6114631025495174e-01  -6.9723680684996361e-02  -6.1570945691201848e-02  -7.4565739529548106e-02  -6.4744799984377988e-02  -1.3986876838949122e-01  -1.5627562130623579e-01  -1.5615849458838429e-01  -1.3965659044493081e-01  -1.6759587814026441e-01  -1.7313260272064337e-01  -1.4239786962007409e-01  -1.4202897384335519e-01  -1.6164499658983647e-01  -1.7541786004622875e-01  -1.8069519224033490e-01  -1.8042945401460275e-01  -1.8501886683158761e-01  -1.8548192085277435e-01  -5.8132612660949476e-02  -5.5092425194862349e-02  -5.7326024310966818e-02  -5.5923373530133276e-02  -7.6568160103697325e-02  -7.5195567992751733e-02  -7.8609593889335222e-02  -1.8593176236069647e-01  -1.8658331461935135e-01  -1.8061622436342786e-01  -1.7620794393480907e-01  -8.6662422527578165e-02  -8.3178896570644215e-02  -8.0642010937980887e-02  -7.9715993188118478e-02  -8.5555409908217764e-02  -8.1132979296687641e-02  -9.1805190413750334e-02  -5.6243777704113936e-02  -1.7753565818077754e-01  -1.7439413618541005e-01  -6.4474358376982718e-02  -5.6418200047450524e-02  -6.3910001469785857e-02  -1.6939522328294487e-01  -1.7292569001263630e-01  -1.7799125533692550e-01  -1.8175455913911184e-01  -1.8448912628300113e-01  -1.8576643526644601e-01  -1.8333304221491950e-01  -1.8556386002596570e-01  -1.8517864686525609e-01  -1.8267114383439190e-01  -1.6976695807804865e-01  -1.7368202607538322e-01  -1.7845096039827210e-01  -1.8214617406074751e-01  -1.7910321024905984e-01  -1.8492868514599409e-01  -1.8613021896217383e-01  -1.8605248348056322e-01  -1.8564191908903396e-01  -1.8322901088290500e-01  -1.5030775280813843e-01  -1.6726083990848623e-01  -1.7278530910185949e-01  -1.7510419033468400e-01  -1.8043266724379772e-01  -1.8009428302864161e-01  -1.8462965381833485e-01  -1.8507608264004685e-01  -1.8571233111589708e-01  -1.8588919702743537e-01  -1.3805671797287200e-01  -1.3842099076181719e-01  -1.4607458374220633e-01  -1.4615157065106490e-01  -1.8321892769208928e-01  -1.8187119103303687e-01  -1.8152021418664926e-01  -1.8120404512407443e-01  -1.8157228516848581e-01  -1.8203045313710886e-01  -7.5450674780727020e-02  -1.7944294775781067e-01  -1.8457771368871423e-01  -1.8120063827734265e-01  -1.7978247985034354e-01  -1.8391609875173737e-01  -1.8380253285857942e-01  -1.4999133584081870e-01  -1.7030899640009156e-01  -1.7029357491632177e-01  -6.2094756758513218e-02  -5.8150510981065079e-02  -6.1949751648730005e-02  -1.6933314347575956e-01  -1.7089005868405260e-01  -1.6772386748937085e-01  -1.6585469142026515e-01  -1.7388930619932924e-01  -1.7891876575249310e-01  -1.7389633735725848e-01  -1.7888207787007332e-01  -1.6920886555411138e-01  -1.7845919240435038e-01  -1.6591379302107229e-01  -1.7546404442042152e-01  -1.6190815572660236e-01  -1.6972686079031529e-01  -1.6901105070267730e-01  -1.7767147928714730e-01  -1.6502378887427391e-01  -1.7326724149286177e-01  -1.6051341551046525e-01  -1.6871818289044144e-01  -1.5623741643641256e-01  -1.6490217880823657e-01  -1.5251436704286672e-01  -1.6216094300733189e-01  -1.5016840648109778e-01  -1.6091206142926276e-01  -1.4906806881216722e-01  -1.6110788659301301e-01  -1.5718760206259558e-01  -1.6567107474519432e-01  -1.5321988843000617e-01  -1.6285319216953961e-01  -1.5075921279061461e-01  -1.6156041588103576e-01  -1.4946106336797682e-01  -1.6165560238659749e-01  -1.6837685100683300e-01  -1.6859538253719009e-01  -1.7923223492572135e-01  -1.7963186462729655e-01  -1.6839970621154587e-01  -1.6787652866610009e-01  -1.5002108064870556e-01  -1.6283378523446759e-01  -1.5156553785021215e-01  -1.6552503030194624e-01  -1.5385554923904932e-01  -1.5029145068553712e-01  -1.6321882737940521e-01  -1.5161322096634255e-01  -1.6587274524864304e-01  -1.5421179438084287e-01  -1.8319841145682117e-01  -1.7452287515934961e-01  -1.7276519802608165e-01  -1.6769508029789512e-01  -1.7133080338417761e-01  -1.6708727683070188e-01  -1.7068515499812256e-01  -1.6352099826377636e-01  -1.4843007942371358e-01  -1.6281671616882892e-01  -1.4862253177962659e-01  -1.6555744802926178e-01  -1.2933819694942741e-01  -1.6465679486829277e-01  -1.6213595154201005e-01  -1.5090501199779255e-01  -1.5029600989128422e-01  -1.2984402894712271e-01  -1.6345531853423487e-01  -1.4884318756503989e-01  -1.7227617248055488e-01  -1.4916612211847441e-01  -1.7151439534717031e-01  -1.4925168994800714e-01  -1.4877977684853885e-01  -1.4728495314809126e-01  -1.6458625502144114e-01  -1.4645108459773293e-01  -1.6167795393009321e-01  -1.2002582751278003e-01  -1.8125042385682838e-01  -4.9136350487026435e-02  -1.7060199030878598e-01  -1.8257359899502537e-01  -1.3794964709338420e-01  -1.4671581504270645e-01  -1.6021243714801484e-01  -1.3697498710682179e-01  -1.7399891004018750e-01  -1.7447203169394682e-01  -1.6975814497330086e-01  -1.7605768532482569e-01  -1.7161635490628063e-01  -1.7463109103774910e-01  -1.7070206348266828e-01  -1.6689345997844940e-01  -1.6372358941924176e-01  -1.7216181640411990e-01  -1.6624173570930031e-01  -1.6113857648223437e-01  -1.6196376077883382e-01  -1.5893696400649440e-01  -1.5937310053001891e-01  -1.5786251601342685e-01  -1.5784966424846622e-01  -1.5668207374982174e-01  -1.5722130508484988e-01  -1.4575392811797244e-01  -1.6109539289222877e-01  -1.6387153908330568e-01  -1.6066468420303404e-01  -1.2259218616466802e-01  -1.5891194704740111e-01  -1.4309219521703323e-01  -1.4543200441448176e-01  -1.4732351391403314e-01  -4.5030338001381849e-02  -5.2803613265797432e-02  -4.8975018549021282e-02  -1.7117615198550951e-01  -1.6642994578665005e-01  -1.8032690064283441e-01  -1.6686577434650524e-01  -1.7540750449309211e-01  -1.3047677974420419e-01  -1.3120187397281305e-01  -1.3345378838081665e-01  -1.5641604151209079e-01  -1.6676247368406197e-01  -1.7327121302060547e-01  -1.6883237247001240e-01  -1.5697195137495068e-01  -1.6262761940943507e-01  -1.6307589103801498e-01  -1.6080629283692269e-01  -1.5734273262719869e-01  -1.5947400967507763e-01  -1.5041611686891290e-01  -1.5738377546008875e-01  -1.5681177613605884e-01  -1.5867958166865323e-01  -1.5498322476591964e-01  -1.6080901661958846e-01  -1.5209924822309032e-01  -1.6189984008236988e-01  -1.6161698941976052e-01  -1.6616086809035685e-01  -1.6220764117006425e-01  -1.7076249350922745e-01  -1.6077556176358659e-01  -1.7449967735625377e-01  -1.5602534153686654e-01  -1.7086359401960666e-01  -1.6381040706884645e-01  -1.6889356537735781e-01  -1.6131300435585849e-01  -1.7765316335870998e-01  -1.7523191278015565e-01  -1.4764306961496496e-01  -1.3990504223566017e-01  -1.6307003248316654e-01  -1.6056538919634336e-01  -1.7612418254817483e-01  -1.5445722569312118e-01  -1.7549843272494431e-01  -1.4542406802728230e-01  -1.5536805899834724e-01  -1.5860037289768189e-01  -1.7384807630902627e-01  -1.4249965071563953e-01  -1.6207348481593217e-01  -1.5237351464621846e-01  -1.2959211761268147e-01  -1.3161989839269955e-01  -1.5468613190837924e-01  -1.613007