<?xml version="1.0"?>
<VTKFile type="UnstructuredGrid"  version="0.1"  >
<UnstructuredGrid>
<Piece  NumberOfPoints="1297" NumberOfCells="2496">
<Points>
<DataArray  type="Float64"  NumberOfComponents="3"  format="ascii">0 0 0  0 1 0  1 1 0  1 0 0  1.1 -0.1 0  -0.1 -0.1 0  1.1 1.1 0  -0.1 1.1 0  0.3098415607705493 0.6652132126416656 0  0.3099607119828101 0.3360166050946887 0  0.6915351234346564 0.3360567726828528 0  0.6917242267085261 0.6647703566552859 0  0.5006326441037117 0.500517488142735 0  0 0.9499999999997918 0  0 0.8999999999995836 0  0 0.8499999999996529 0  0 0.7999999999999998 0  0 0.7500000000003466 0  0 0.7000000000006934 0  0 0.6500000000010401 0  0 0.6000000000013869 0  0 0.5500000000017335 0  0 0.5000000000020587 0  0 0.4500000000018723 0  0 0.4000000000016644 0  0 0.3500000000014564 0  0 0.3000000000012483 0  0 0.2500000000010403 0  0 0.2000000000008322 0  0 0.1500000000006241 0  0 0.100000000000416 0  0 0.05000000000020799 0  0.04999999999989965 0 0  0.09999999999981467 0 0  0.1499999999997036 0 0  0.1999999999995579 0 0  0.2499999999994121 0 0  0.2999999999992664 0 0  0.3499999999991206 0 0  0.3999999999989749 0 0  0.4499999999988292 0 0  0.4999999999986943 0 0  0.5499999999988151 0 0  0.5999999999989468 0 0  0.6499999999990784 0 0  0.69999999999921 0 0  0.7499999999993417 0 0  0.7999999999994734 0 0  0.8499999999996051 0 0  0.8999999999997368 0 0  0.9499999999998684 0 0  1 0.04999999999989965 0  1 0.09999999999981467 0  1 0.1499999999997036 0  1 0.1999999999995579 0  1 0.2499999999994121 0  1 0.2999999999992664 0  1 0.3499999999991206 0  1 0.3999999999989749 0  1 0.4499999999988292 0  1 0.4999999999986943 0  1 0.5499999999988151 0  1 0.5999999999989468 0  1 0.6499999999990784 0  1 0.69999999999921 0  1 0.7499999999993417 0  1 0.7999999999994734 0  1 0.8499999999996051 0  1 0.8999999999997368 0  1 0.9499999999998684 0  0.9499999999997918 1 0  0.8999999999995836 1 0  0.8499999999996529 1 0  0.7999999999999998 1 0  0.7500000000003466 1 0  0.7000000000006934 1 0  0.6500000000010401 1 0  0.6000000000013869 1 0  0.5500000000017335 1 0  0.5000000000020587 1 0  0.4500000000018723 1 0  0.4000000000016644 1 0  0.3500000000014564 1 0  0.3000000000012483 1 0  0.2500000000010403 1 0  0.2000000000008322 1 0  0.1500000000006241 1 0  0.100000000000416 1 0  0.05000000000020799 1 0  -0.1 1.05000000000004 0  -0.1 1.000000000000079 0  -0.1 0.9500000000001624 0  -0.1 0.9000000000003032 0  -0.1 0.850000000000444 0  -0.1 0.8000000000005848 0  -0.1 0.7500000000007256 0  -0.1 0.7000000000008665 0  -0.1 0.6500000000010508 0  -0.1 0.6000000000012352 0  -0.1 0.5500000000014196 0  -0.1 0.500000000001539 0  -0.1 0.4500000000014195 0  -0.1 0.4000000000013 0  -0.1 0.3500000000011588 0  -0.1 0.3000000000010178 0  -0.1 0.2500000000008986 0  -0.1 0.2000000000007579 0  -0.1 0.1500000000006174 0  -0.1 0.1000000000005272 0  -0.1 0.05000000000040083 0  -0.1 2.671196597248127e-13 0  -0.1 -0.0499999999998666 0  -0.0500000000000906 -0.1 0  -1.730560139634463e-13 -0.1 0  0.04999999999975802 -0.1 0  0.09999999999961506 -0.1 0  0.1499999999994613 -0.1 0  0.199999999999302 -0.1 0  0.2499999999991446 -0.1 0  0.2999999999990088 -0.1 0  0.3499999999988296 -0.1 0  0.3999999999986936 -0.1 0  0.4499999999985143 -0.1 0  0.4999999999984002 -0.1 0  0.5499999999985247 -0.1 0  0.5999999999986493 -0.1 0  0.6499999999987955 -0.1 0  0.6999999999989417 -0.1 0  0.7499999999990659 -0.1 0  0.7999999999992116 -0.1 0  0.8499999999993573 -0.1 0  0.8999999999994526 -0.1 0  0.949999999999584 -0.1 0  0.9999999999997226 -0.1 0  1.049999999999861 -0.1 0  1.1 -0.0500000000000906 0  1.1 -1.730560139634463e-13 0  1.1 0.04999999999975802 0  1.1 0.09999999999961506 0  1.1 0.1499999999994613 0  1.1 0.199999999999302 0  1.1 0.2499999999991446 0  1.1 0.2999999999990088 0  1.1 0.3499999999988296 0  1.1 0.3999999999986936 0  1.1 0.4499999999985143 0  1.1 0.4999999999984002 0  1.1 0.5499999999985247 0  1.1 0.5999999999986493 0  1.1 0.6499999999987955 0  1.1 0.6999999999989417 0  1.1 0.7499999999990659 0  1.1 0.7999999999992116 0  1.1 0.8499999999993573 0  1.1 0.8999999999994526 0  1.1 0.949999999999584 0  1.1 0.9999999999997226 0  1.1 1.049999999999861 0  1.05000000000004 1.1 0  1.000000000000079 1.1 0  0.9500000000001624 1.1 0  0.9000000000003032 1.1 0  0.850000000000444 1.1 0  0.8000000000005848 1.1 0  0.7500000000007256 1.1 0  0.7000000000008665 1.1 0  0.6500000000010508 1.1 0  0.6000000000012352 1.1 0  0.5500000000014196 1.1 0  0.500000000001539 1.1 0  0.4500000000014195 1.1 0  0.4000000000013 1.1 0  0.3500000000011588 1.1 0  0.3000000000010178 1.1 0  0.2500000000008986 1.1 0  0.2000000000007579 1.1 0  0.1500000000006174 1.1 0  0.1000000000005272 1.1 0  0.05000000000040083 1.1 0  2.671196597248127e-13 1.1 0  -0.0499999999998666 1.1 0  0.2995420408347181 0.6525036506199826 0  0.288275606409073 0.6348143449513041 0  0.2792056914644576 0.6146046352204034 0  0.2723692165553536 0.5927167612194225 0  0.267437082790959 0.5700516961048498 0  0.2640725084515712 0.5470550281405431 0  0.2620581844314358 0.5238590056275316 0  0.2614403713578362 0.5005463752516235 0  0.2621416337390834 0.4772417135600082 0  0.2641328639185352 0.4540142495938985 0  0.2675107056508116 0.4309908660363052 0  0.2724946535265609 0.4083560438598387 0  0.2793605499665232 0.3865646703401172 0  0.2884593383470404 0.3663316422795302 0  0.2997750899134607 0.3486180320208624 0  0.3232964466665327 0.3198418662986826 0  0.3392855076341693 0.3049085175081481 0  0.3578258486995254 0.2921262323671519 0  0.3777817764592774 0.2815925962207539 0  0.3982480439629729 0.2731112005629157 0  0.4188511085841925 0.2663978201580846 0  0.4393379018605871 0.2612532942432687 0  0.4598221609645922 0.2575330931748402 0  0.4803303846309026 0.2552974733661269 0  0.5008384769311318 0.2545522665239631 0  0.5213439531981832 0.2552963600258151 0  0.5418579373115026 0.2575089848348304 0  0.5624091609209643 0.2611837671980093 0  0.5829402204070206 0.2663240321853662 0  0.6036800327066814 0.2730620903895837 0  0.6242236811917173 0.2815805867854441 0  0.6440439040517656 0.2921209513595757 0  0.6624074994397966 0.3048633438215571 0  0.6782536596756614 0.3197418814643383 0  0.7018357605696688 0.3487177856841951 0  0.7128957953452486 0.3662256110379918 0  0.7218948493996814 0.3864670145175323 0  0.7286417687816183 0.4083202384220005 0  0.7334943221922817 0.4309592498493884 0  0.7367457865208065 0.4539461555016439 0  0.738579516742875 0.477082264899725 0  0.7390955279294135 0.5002702349443141 0  0.7383338375677527 0.5234261770507758 0  0.7364317686805673 0.5464508556236303 0  0.7332685250399829 0.5693704279242743 0  0.728561824120569 0.5920159218604666 0  0.7219563343035604 0.613999873641347 0  0.7130608877093771 0.6343572340060291 0  0.7020486158961201 0.6519830730691215 0  0.6785599050260365 0.6810190483282844 0  0.6627333677602087 0.6959385491545871 0  0.644415071565435 0.7087507796962436 0  0.6245588436334634 0.7193657442252765 0  0.603953414006669 0.7279616832659767 0  0.5831294073240245 0.7347593009435954 0  0.5625328873999179 0.7399303245449402 0  0.5419379666307715 0.7436082361996783 0  0.5214150847815642 0.745807581353629 0  0.5009402468690175 0.7465424440208245 0  0.4804435666771139 0.7458052389450395 0  0.4599173522312723 0.7435713723607222 0  0.4394123058269703 0.7398704948621114 0  0.4188078448243931 0.7347414322193684 0  0.3980712843431006 0.7280232299164068 0  0.3775641949828811 0.7195426098776145 0  0.3576212827551009 0.709003167031737 0  0.3391178813138709 0.696204723250668 0  0.3231447319454129 0.6812924345069132 0  0.3892430829271409 0.3040722196903738 0  0.2893300017920162 0.4420864217250603 0  0.3891070673198687 0.6970454737029883 0  0.2892651321902717 0.559063943085731 0  0.7094291278474194 0.5809924341425851 0  0.5925742187053286 0.7052378303698972 0  0.6117287992271749 0.303214558810351 0  0.7132203630796087 0.4412277178825667 0  0.7158277084496196 0.5113529003476666 0  0.5511392315449415 0.2853783458117066 0  0.4507931743331158 0.287779690116137 0  0.4496438505666733 0.7136789575645869 0  0.5314172032029194 0.7171250248833138 0  0.2853990252769088 0.4887974125166534 0  0.2970309071988817 0.3967214656575618 0  0.4908207321307604 0.286245682093077 0  0.3026497225748874 0.6030105882977431 0  0.6978185960257681 0.3945239494180399 0  0.4907344350104728 0.71842870840184 0  0.6327185268401579 0.6887836691588847 0  0.3495637905731731 0.3250779667386894 0  0.652292802330981 0.3266348958661763 0  0.3498993163575665 0.6787435261328592 0  0.6943562942705606 0.6270301802942315 0  0.3134896447632441 0.354224818493204 0  0.3153388627805569 0.6460307938841926 0  0.6709754408811898 0.6675135424749452 0  0.6885344987203865 0.3538087107456062 0  0.3692706370909412 0.6886008345675395 0  0.3790446129798221 0.6677414982416433 0  0.3991744219841653 0.6740639834724633 0  0.3876031834683856 0.6454074603033817 0  0.4089328117828496 0.6504187611110469 0  0.3955756164580571 0.6197215899597796 0  0.421488056192785 0.624001669835148 0  0.4052469759415802 0.5883389848482619 0  0.3695576829296627 0.6139757782359108 0  0.4370611619003519 0.5911266879135718 0  0.417432844198248 0.5514132027207159 0  0.379140683542983 0.5552586825076089 0  0.3946541887842075 0.5153330077577133 0  0.3572966814192579 0.5170326188508455 0  0.3704625801544197 0.4819749413298808 0  0.4093656862196647 0.4758024558199355 0  0.3899240349027965 0.4423097910831241 0  0.4245543010779655 0.4348272827716335 0  0.4068298895246137 0.402780326713084 0  0.4378358320294678 0.387415040137589 0  0.3742307641595004 0.4075342315330668 0  0.4165148814295848 0.3660093042056279 0  0.4463365374621356 0.6287313231486181 0  0.4691134178501388 0.6014191779077638 0  0.4860722451687191 0.6313175013532409 0  0.5026363268562639 0.6037732259941142 0  0.5185054565135918 0.6314769999897116 0  0.5353535677309914 0.6036119030964792 0  0.5506285186662079 0.6307266574199064 0  0.5678450437342004 0.6028834682202981 0  0.5831957858552722 0.6316497378606384 0  0.6007377315703327 0.5938850917928501 0  0.58681738692
[...]
<PointData  Scalars="v"> 
<DataArray  type="Float64"  Name="v"  format="ascii">-1.6712062127989048e-22  0.0000000000000000e+00  3.6878010789130456e-21  3.0899350940669008e-21  -1.4642218922742052e-22  8.5738001435099146e-25  -2.1216578022403586e-22  4.6563404296412329e-24  3.2938204330252901e-04  3.5461614635469657e-04  3.2769584457496067e-04  3.0493294880107465e-04  4.5440267482880744e-04  -3.5411242133921475e-21  -8.2560676596288235e-21  7.3551083959864152e-21  -8.8275171633849382e-20  7.4770979927953900e-20  3.3279763350588030e-20  -3.3178468935434299e-20  3.3529081393092937e-20  -3.7893127672603220e-20  8.2395280230743341e-20  1.3549624048389120e-21  -1.3210157370277008e-20  5.3494878974369702e-22  5.3780722898814987e-20  9.7119527975598995e-21  3.9574756220675123e-23  -4.5873324056753642e-21  5.3710056897087955e-21  4.7712235953681218e-21  -4.6017515115437335e-21  8.4539684259554837e-22  5.7795558438257470e-21  -3.2552331303361666e-21  -1.2154268974813954e-20  -3.2472080495037991e-20  4.2260311330037880e-20  9.2263140594966175e-21  4.2051069761041745e-21  1.0100038973018888e-20  0.0000000000000000e+00  -1.3504257333999769e-20  1.9437886314179143e-20  -5.6040560868312929e-21  3.2427111590289265e-20  1.9728746006139152e-20  -7.7045160164845032e-21  4.5755338535394628e-21  -4.9684455788971351e-21  8.0259639300664063e-21  2.5818939893313102e-20  -6.6776591869357584e-21  1.7323330268875587e-20  1.3037145081542125e-20  5.6443811472126971e-20  -3.1740102342206750e-20  -6.8366371094910373e-20  1.8144843035216718e-20  4.5123936121151347e-20  1.0209026562981846e-20  -4.6645933737585301e-21  6.0184091400414029e-21  -1.5275996411157940e-20  3.1836323194017359e-21  8.6963252838804334e-21  4.4904019705883882e-22  -2.4286329711986200e-21  -1.6386507884024241e-20  7.9865354313346730e-21  9.4126493894450095e-21  3.0948206757342752e-20  2.0312113851294000e-20  -7.2059890408722161e-21  -1.0840446865193653e-20  1.0900861279763399e-20  -4.9889558806884118e-22  4.4911419207940993e-21  -3.3026086114343113e-20  -5.3724758754165776e-20  1.5369700709104212e-20  -2.3856740719436317e-20  -2.8651529517795105e-20  2.2292602630798580e-20  1.7629462601198900e-20  5.8734048478317749e-21  1.8918076198880263e-20  3.8532397393027394e-21  -1.2238034707742314e-23  1.9421200470599205e-22  -1.2801762946930529e-21  1.5058187275999357e-22  -3.3372543827242700e-21  -6.8654671890989716e-21  5.9726922715169726e-21  5.3105764308533076e-21  -1.8276058464906381e-21  -4.0665176316812890e-22  1.3435465468484071e-21  5.6851896501029008e-21  4.0575878335428219e-21  -3.4636876994864057e-21  1.6945434302455317e-21  5.5731387472615832e-21  2.4026569702106646e-21  -6.0536375020783813e-22  -5.7821287623228543e-22  6.2879916440040798e-22  6.9535138830373766e-22  4.3859705568450438e-23  -6.5674754435450330e-23  8.5852058718238115e-23  -1.7452866228168573e-22  -5.3652669374945835e-22  1.5347277088357705e-22  6.1155692293283574e-22  -1.9940325447630943e-23  -3.1139522789188430e-21  -1.9654577835672988e-21  3.6748980522508437e-21  2.6973015823926784e-21  1.7221435132062500e-22  1.9170351560569368e-21  9.2182631802091410e-23  -8.2251712202269277e-22  1.3057772055096434e-21  9.5975052002394167e-22  3.4405481142443800e-21  2.6154372325629673e-21  4.3299289904088030e-22  -2.8928887968299745e-22  -1.0927751192876561e-22  4.5064610652411588e-23  1.8833665380561781e-22  3.8519483280936821e-23  2.2286339268263271e-22  1.7085763046063601e-21  3.1220750186562229e-21  1.0145630445741914e-21  6.2807262247389279e-22  4.3009131153065588e-21  5.1139288130642179e-21  -4.2927086115248648e-21  -7.5281249657247139e-21  1.3938648456128994e-21  6.2149524239188268e-21  1.8189650932095569e-21  -4.2420526069276178e-22  -7.4439528980901827e-23  -1.0234285194372512e-21  -5.5897592709546307e-22  1.3346753914379324e-21  3.8038898158482865e-22  -1.0112612249362704e-21  -1.6715071516365236e-21  -7.4604511975215840e-23  3.5547418496006712e-22  -4.1262084094957285e-23  5.8825593551884139e-22  7.9046905647402652e-22  2.1629365937517173e-21  3.8938673568433613e-21  2.9001025372824001e-21  4.5044104583134368e-24  -1.3039008126020590e-21  3.5338730552513224e-22  1.9488664418697605e-21  1.3067646424799552e-21  -5.5653106003068837e-21  -5.7253256499180797e-21  -1.1479174718540757e-22  -2.4443826445336293e-21  -2.9052404334937395e-21  2.1115848009368566e-21  3.4313332414692749e-21  1.5407582272337818e-21  1.9699435295990366e-21  1.0105892331914330e-21  -8.6131312826339973e-23  -1.3810802620455427e-23  3.3352612937450916e-04  3.3987400604566537e-04  3.4890085511255083e-04  3.5988604774760049e-04  3.7033052128951604e-04  3.7844329433547229e-04  3.8427482624018704e-04  3.8736905873524994e-04  3.8816275063955789e-04  3.8597265197952467e-04  3.8123584522237251e-04  3.7461499764975496e-04  3.6720861541333493e-04  3.6070380528769729e-04  3.5656331363786997e-04  3.4967284241460832e-04  3.4596131447399805e-04  3.4343051646909832e-04  3.4212188760334762e-04  3.4185950917769786e-04  3.4206969397662548e-04  3.4153824737388728e-04  3.4047526041427263e-04  3.3910699764030618e-04  3.3727812628331642e-04  3.3534837869706423e-04  3.3354761752793169e-04  3.3173934517153215e-04  3.2914442645619617e-04  3.2640702794750598e-04  3.2422860653586567e-04  3.2300217157604208e-04  3.2285430051602805e-04  3.2448071674656719e-04  3.2930037739329070e-04  3.3181988220726017e-04  3.3660689433958767e-04  3.4334891159107643e-04  3.4953217920431962e-04  3.5437353204445109e-04  3.5754671304358396e-04  3.5788033335728327e-04  3.5482463393821237e-04  3.4943029645569080e-04  3.4146580552875253e-04  3.3162378030081628e-04  3.2140483929435837e-04  3.1379466867660210e-04  3.0843058879721221e-04  2.9929209648548648e-04  2.9561076443818275e-04  2.9438395204123009e-04  2.9389038141479259e-04  2.9436483691054318e-04  2.9563735265334702e-04  2.9726855066090929e-04  2.9865740004847961e-04  3.0032975623282636e-04  3.0173323925894685e-04  3.0322551056478474e-04  3.0458931800522254e-04  3.0577278165880821e-04  3.0676064204545879e-04  3.0761175361880208e-04  3.0949784561186774e-04  3.1234694744231375e-04  3.1686253533522743e-04  3.2251042353698329e-04  3.7278053065722207e-04  4.0285379143377090e-04  3.4074479023268585e-04  3.9285647080804811e-04  3.5536316075437295e-04  3.2517417433460482e-04  3.5465314196429847e-04  3.7149530607248583e-04  3.7447918863208255e-04  3.6161295867893260e-04  3.7190625794986066e-04  3.3715607207477288e-04  3.3072814528161071e-04  4.0620313138588622e-04  3.9063753392615155e-04  3.7155821391270365e-04  3.7751454526878034e-04  3.6484270373318640e-04  3.3396060200545174e-04  3.1923294896685076e-04  3.7420959670895375e-04  3.5159053462533970e-04  3.3804678924749201e-04  3.3163300532212839e-04  3.6811874525174293e-04  3.4729785198306037e-04  3.0975001468726309e-04  3.4012597761593497e-04  3.4116821136069922e-04  3.6089897794327710e-04  3.6094181405957841e-04  3.7980890249049003e-04  3.8102668327031860e-04  3.9888201321142434e-04  4.0150510229157264e-04  4.2164826678133509e-04  3.9676859418969889e-04  4.2311180918162974e-04  4.3962263345182856e-04  4.3048732628871091e-04  4.4617020646238795e-04  4.3726916422086380e-04  4.4453699929340615e-04  4.5184125661101247e-04  4.4383903034543902e-04  4.4781891262514402e-04  4.3549079239207358e-04  4.3333745746523242e-04  4.2920724788416873e-04  4.1959517757020321e-04  4.0155062422463506e-04  4.1890086333094459e-04  4.0051681567359254e-04  4.1535032671793920e-04  3.9799085985638101e-04  4.1079837910733405e-04  3.9186056639176406e-04  4.0450446703504147e-04  3.8261758733921917e-04  3.9940125486937340e-04  4.2049506029957865e-04  4.0983438713902270e-04  4.2680601848333883e-04  3.8881338279280912e-04  3.9650828046745699e-04  3.6444887214743312e-04  3.7271588574068937e-04  4.2442575768242248e-04  4.2457792631451059e-04  4.1707145449120376e-04  4.3007329501023553e-04  3.6071234652295271e-04  4.0088455707622869e-04  3.7223569351267204e-04  3.6557856596680215e-04  4.0996186090770437e-04  4.2866105881878686e-04  4.0509496662863878e-04  4.2250627612482121e-04  4.4089275812951649e-04  4.2930694330526546e-04  4.1452221326748181e-04  4.1648450825653810e-04  4.3593291213028839e-04  4.2092661934783719e-04  4.0362552706976323e-04  4.0584467300883138e-04  4.1610652086757890e-04  3.9137949813314858e-04  3.9069734937330250e-04  3.7888335175974248e-04  3.7615040695483594e-04  4.3682719704520398e-04  3.7728787539333879e-04  3.7000922997168441e-04  3.8097657966512888e-04  3.9529927909831683e-04  3.6118380764471012e-04  3.5320916315842053e-04  3.5676707342214041e-04  4.0192835912918707e-04  3.8489824855791671e-04  3.7989630714286925e-04  3.9609168109845276e-04  4.3473295676660210e-04  4.2250027696069892e-04  4.1507738777164446e-04  4.3530972852299317e-04  4.2491421214925317e-04  4.0941091668501378e-04  4.0189355225454446e-04  4.0347251552228208e-04  4.0988857727434038e-04  4.0908183919197789e-04  4.0862173180567250e-04  4.1536581910554165e-04  4.4535609480559572e-04  4.1132728565573666e-04  4.5428487953916768e-04  4.1335126535416194e-04  4.0169776666232733e-04  4.1524055409024763e-04  4.0253489358804050e-04  3.8951974712426562e-04  3.8773784223686535e-04  3.9607262633681718e-04  4.1969587799236630e-04  4.0444628076459575e-04  4.2215257057114298e-04  4.3560428469537071e-04  3.6720619677270405e-04  3.6749673781427417e-04  3.7453293881759106e-04  3.5564722910014462e-04  3.8595729179322243e-04  3.9435824965661529e-04  3.8742270263878819e-04  3.7384041716796121e-04  3.9943716510357593e-04  3.8177499684446205e-04  3.9357114858186486e-04  3.9004362790558665e-04  3.8730364174321990e-04  3.7222306306600427e-04  4.1787182911900013e-04  4.0913997541737273e-04  3.3511877189117454e-04  3.6384106656812249e-04  3.5882134185671047e-04  3.8196914934469114e-04  3.3852385635344624e-04  3.5946672098721499e-04  3.8145225803836629e-04  3.4975258523019942e-04  3.3955053493353165e-04  3.6349060317288664e-04  3.5168920450578115e-04  3.7610774479492016e-04  3.7119770282738286e-04  3.7169096326781332e-04  3.6176120065073663e-04  3.7744005861305586e-04  3.3156889894583977e-04  3.6844936817196565e-04  3.8357694565607786e-04  3.2678184411898744e-04  3.4460102442805375e-04  3.2822649417959594e-04  3.2316653165196437e-04  3.1676976836333916e-04  3.3827462178025788e-04  3.8033155069051958e-04  3.9374376120018410e-04  3.4030226198620509e-04  3.5722014887284162e-04  3.9039006836638792e-04  3.5963747966234288e-04  3.3202235193434149e-04  3.1610661405916135e-04  3.3352179526018147e-04  3.6529731686500895e-04  4.4733135080310432e-04  4.3731010175697904e-04  3.8821967917171825e-04  3.8509557237318857e-04  3.9677319601868897e-04  3.9761854979559997e-04  3.5139854496002963e-04  3.6362521201830684e-04  3.4035265716298428e-04  3.5360625474237760e-04  4.0179667140739919e-04  3.6625098789522454e-04  4.3032314058487109e-04  4.5089209988718771e-04  4.4026939854389593e-04  4.2815892882276272e-04  3.7690128760151451e-04  3.6865759693617984e-04  3.5449338639228833e-04  3.9098256283277334e-04  3.5765123117460350e-04  4.0245574844501508e-04  3.7476407713821122e-04  4.2940184057919082e-04  3.4849744643802947e-04  3.4836123154579571e-04  3.7608233820626434e-04  4.0218870126405181e-04  3.6323605734078909e-04  3.7828258315042245e-04  4.2608495606628844e-04  3.7280928445671777e-04  4.5371369019098684e-04  4.1341540123983442e-04  3.5833733138630769e-04  3.9776813931813521e-04  3.8220705738179015e-04  3.4643864118084867e-04  4.4468040227123269e-04  3.9685680476744741e-04  3.8921856036527663e-04  3.5125542544216855e-04  4.4494849872344185e-04  4.1540273556246959e-04  4.0433344374017746e-04  4.4160657575902551e-04  4.1125558771239299e-04  3.8876734880218016e-04  4.5172647625833827e-04  3.7339180483732460e-04  3.9972448814697939e-04  3.3961020363024977e-04  3.6155244192839065e-04  3.7952349070492021e-04  3.9066608067534224e-04  3.6683165761916255e-04  3.6852824650991574e-04  3.4676072958235568e-04  3.2178938892516844e-04  3.2106604587078981e-04  2.9638428873095691e-04  3.8846767518163644e-04  3.6315742085399994e-04  3.8412557193375917e-04  4.0230949922251218e-04  3.7911566720665838e-04  3.8251507891133368e-04  3.7110505703205203e-04  3.7702801347143172e-04  4.1472630501969665e-04  3.8637021811900818e-04  4.1331251104236889e-04  3.9000709681237414e-04  3.6925891417111291e-04  3.9268051049582797e-04  3.9111206095768708e-04  4.1986959950835069e-04  4.5049830549049143e-04  4.2316106499864451e-04  4.1610596013608994e-04  4.0627858243101340e-04  3.8444999802654826e-04  4.3796441831024907e-04  4.1326734039081361e-04  4.4437945537415007e-04  3.6655375698839567e-04  2.8442735833152327e-04  2.8837552104898554e-04  2.9145578314351275e-04  3.0068000294707943e-04  2.8091001005962543e-04  2.8190494704010300e-04  3.2238072712094623e-04  3.2689335950315010e-04  3.1797313624287119e-04  3.1322954433829259e-04  3.1007512891961006e-04  3.3092881550509160e-04  3.9967515363320364e-05  4.1483520250102326e-05  4.9187411195315795e-05  3.8759143097856406e-05  3.6145038970967564e-04  3.3286598378436328e-04  3.2178761487976112e-04  3.3701421660660002e-04  2.9231083127213316e-04  2.8148758035428473e-04  3.2835512544404015e-04  3.6524936545461232e-04  3.4604956635836832e-04  2.7067232931245915e-04  2.5470589276210668e-04  2.5884493366815352e-04  2.3225070799883074e-04  2.3395703876516588e-04  3.8671319668129230e-05  4.3728588502570730e-05  4.4007270047199013e-05  3.8177182924811214e-05  6.1424743255482375e-05  5.7946061078138157e-05  6.8047031658545923e-05  2.0513085923798047e-04  2.0965490564580695e-04  2.4195763697791573e-04  2.5660106132749161e-04  9.6094059400751630e-05  8.2963302747316676e-05  7.5196586189433504e-05  7.9833097078405420e-05  9.7334044666135957e-05  8.2052959834921633e-05  1.0301072337366140e-04  3.7961530149123445e-05  2.2102078479377494e-04  2.3579206911123176e-04  4.6052363318150934e-05  4.3171662043116526e-05  5.2399590846818267e-05  3.3222049632025951e-04  3.2783270684632161e-04  3.0832666088650355e-04  2.9584579309053382e-04  2.7756238596063327e-04  2.6143576674721614e-04  2.8183906677868234e-04  2.4099731451794051e-04  2.5422089724895812e-04  2.2095285023689641e-04  3.0559636998476434e-04  3.0188176391522382e-04  2.8264133144662024e-04  2.7220210745162402e-04  2.8370194065890713e-04  2.5364827250144549e-04  2.3992488340942293e-04  2.1991011900182266e-04  2.3058458697716001e-04  2.0248313664836582e-04  3.5703751009559948e-04  3.1209416817826457e-04  3.0252847457064839e-04  2.8927194195518970e-04  2.7390265622297653e-04  2.7973560969835894e-04  2.5147999053873939e-04  2.5413020612583849e-04  2.2432814124061042e-04  2.2442141523442804e-04  3.3733217414343690e-04  3.6703539613397614e-04  3.4957651982851659e-04  3.3056327613795714e-04  2.4262124589484701e-04  1.9496275699434857e-04  2.0284895669943253e-04  1.9345691459759525e-04  2.1628334335846140e-04  2.3231892873030508e-04  4.8902371223003767e-05  1.9057292681534324e-04  2.2625405843634767e-04  1.7562176814679079e-04  1.7305012838866345e-04  2.0058570309750446e-04  2.0288646912753773e-04  3.1554049867382462e-04  1.6399909845201687e-04  1.8388507365987516e-04  3.6396295590132993e-05  3.4123529512294992e-05  3.9827746974915621e-05  1.7356147436844009e-04  1.6048602167391721e-04  1.9390833829192628e-04  2.0891923863888067e-04  1.8257631232405699e-04  2.1140358824378117e-04  1.6434093527647615e-04  1.8915586740428031e-04  1.6926917061640942e-04  2.0460345360490562e-04  1.6997439719776788e-04  2.0951126171917227e-04  1.6846005911956766e-04  2.0200947329354776e-04  1.9062877630653124e-04  2.3036032892320658e-04  1.9112684376833535e-04  2.3031375600983940e-04  1.8892633857043052e-04  2.2672463299106820e-04  1.8495637736359999e-04  2.2284020128650851e-04  1.8072129363072017e-04  2.1874907288446939e-04  1.7671233287385528e-04  2.1514121343192086e-04  1.7287089834826044e-04  2.1225230759204031e-04  1.6376484298225049e-04  1.9697394372371463e-04  1.5875084273948663e-04  1.9243238210496833e-04  1.5476941723462101e-04  1.8907449398452558e-04  1.5115767264211252e-04  1.8622109593280191e-04  1.5801546778845498e-04  1.5795486027887992e-04  2.8175332691819741e-04  2.5835273657607406e-04  1.4326457149319602e-04  1.4277864749124157e-04  1.7225110347827207e-04  2.1026742543789123e-04  1.7045422809029611e-04  2.0860558685688465e-04  1.6809786191962660e-04  1.5051048023437583e-04  1.8472781743592701e-04  1.4904749636631101e-04  1.8415784936546591e-04  1.4932393931995134e-04  2.1864283098579248e-04  1.7809178172204662e-04  1.8924669829282871e-04  2.1759591775606798e-04  2.1688998266517078e-04  2.4567038307650506e-04  2.4416464705612130e-04  2.2351377179422006e-04  1.2933111889309884e-04  2.5021170941127427e-04  1.4612350923837283e-04  2.2812270266847753e-04  1.3379145690877822e-04  2.5779966972696048e-04  1.6635335205912447e-04  1.3921653309049411e-04  1.2416336162708751e-04  1.1685407482708876e-04  1.5017696878193460e-04  1.2151082652727558e-04  2.3794180120991694e-04  1.1124740621519398e-04  2.6559644862310302e-04  1.6173825341741946e-04  1.4812629105945979e-04  1.7026968519925526e-04  2.2591924169854710e-04  1.1955987869948080e-04  1.5005852472791211e-04  8.4430717187175820e-05  2.4957558044125374e-04  2.1696469016134599e-05  2.7053492211433233e-04  2.2355872476342969e-04  1.2663681563498619e-04  1.7988621612727369e-04  2.2899808439147989e-04  1.4315392659828657e-04  3.1362824637176900e-04  2.8592232632208581e-04  2.9849290593720256e-04  2.7198080021909385e-04  2.8072080195955571e-04  2.4824819309695505e-04  2.5625126448643426e-04  2.1694759769108068e-04  2.2384821549356374e-04  2.1664027943646218e-04  2.7013546196353157e-04  2.3056119683757782e-04  2.7242807300034168e-04  2.3474834900224587e-04  2.7560613470835207e-04  2.3850726498657269e-04  2.7983748678333972e-04  1.4674566535709447e-04  1.3675927668408661e-04  1.0870863481890609e-04  1.3643954542729762e-04  2.6494083328708860e-04  2.7096016065480955e-04  7.9459920937082615e-05  2.4878664071965786e-04  1.0605885985900128e-04  1.2094880613470694e-04  1.9460808683450053e-04  2.2705158133996369e-05  2.5426974581811801e-05  2.5732853630943225e-05  3.3169141107129040e-04  3.1883679013886072e-04  2.3332890465126778e-04  1.9299818612921943e-04  2.4163008611612495e-04  1.0329749257004543e-04  9.6632278761419309e-05  1.0747201625449672e-04  1.8700486176024774e-04  2.2910667450986717e-04  2.7171642436177822e-04  2.7166421894793755e-04  2.1632648575985736e-04  2.5689976419385148e-04  2.9948316570662428e-04  2.9535154389541662e-04  2.4311747423204862e-04  2.7803184510524786e-04  2.2385831183519453e-04  2.6235638513325818e-04  3.0879480881098443e-04  2.9850270546461611e-04  2.4516351774485942e-04  2.8701010203151619e-04  2.2695464524284846e-04  2.6356456914552659e-04  3.0953990577999680e-04  2.9084294720729874e-04  2.4338220916210338e-04  2.7853473711231914e-04  2.2103391305764849e-04  2.5500693693477998e-04  1.9397859138529756e-04  2.1710304739115015e-04  2.4915639314812468e-04  2.4542037287342229e-04  2.4715269881774233e-04  2.3322071456822229e-04  2.6884127880285116e-04  1.8329207842877941e-04  1.4521648028383173e-04  2.7939324687486101e-04  2.7815467662917979e-04  2.7761172597531045e-04  3.0499025933236666e-04  2.1394376463303676e-04  1.8486655977170702e-04  2.6492507525753203e-04  2.9982123251282180e-04  2.9900990298421115e-04  1.5643013583899399e-04  1.8083720142428119e-04  3.0607902473205555e-04  1.2768719316703640e-04  1.2651579960489025e-04  2.9684671485096187e-04  2.9908583587652510e-04  1.3386544594512389e-04  2.9577449472992885e-04  3.0118954398030773e-04  2.8865300121674333e-04  2.6444046967115641e-04  1.1156816444846551e-04  1.1591460747366800e-04  1.3796235770837780e-04  3.0834150583143046e-04  3.2498667826886618e-04  1.7578965507624223e-04  1.5419670974423585e-04  1.2286515710563381e-04  9.3022117369485148e-05  7.2205782908180659e-05  1.7658148643083431e-04  1.1850051667382043e-04  8.1832805585439162e-05  9.8240816539331627e-05  1.2896147218030378e-04  2.7830419305912646e-04  1.0985649732245610e-04  1.0050182154917387e-04  1.3575158348557529e-04  3.2647172203206115e-04  3.4025198069681821e-04  3.286