<?xml version="1.0"?>
<VTKFile type="UnstructuredGrid"  version="0.1"  >
<UnstructuredGrid>
<Piece  NumberOfPoints="1297" NumberOfCells="2496">
<Points>
<DataArray  type="Float64"  NumberOfComponents="3"  format="ascii">0 0 0  0 1 0  1 1 0  1 0 0  1.1 -0.1 0  -0.1 -0.1 0  1.1 1.1 0  -0.1 1.1 0  0.3099188507215923 0.6665143268628092 0  0.3099142148170151 0.3327986549714438 0  0.6898025696206608 0.3331508801384696 0  0.6897987126373961 0.6659896942431156 0  0.4997036711822258 0.499573294401729 0  0 0.9499999999997918 0  0 0.8999999999995836 0  0 0.8499999999996529 0  0 0.7999999999999998 0  0 0.7500000000003466 0  0 0.7000000000006934 0  0 0.6500000000010401 0  0 0.6000000000013869 0  0 0.5500000000017335 0  0 0.5000000000020587 0  0 0.4500000000018723 0  0 0.4000000000016644 0  0 0.3500000000014564 0  0 0.3000000000012483 0  0 0.2500000000010403 0  0 0.2000000000008322 0  0 0.1500000000006241 0  0 0.100000000000416 0  0 0.05000000000020799 0  0.04999999999989965 0 0  0.09999999999981467 0 0  0.1499999999997036 0 0  0.1999999999995579 0 0  0.2499999999994121 0 0  0.2999999999992664 0 0  0.3499999999991206 0 0  0.3999999999989749 0 0  0.4499999999988292 0 0  0.4999999999986943 0 0  0.5499999999988151 0 0  0.5999999999989468 0 0  0.6499999999990784 0 0  0.69999999999921 0 0  0.7499999999993417 0 0  0.7999999999994734 0 0  0.8499999999996051 0 0  0.8999999999997368 0 0  0.9499999999998684 0 0  1 0.04999999999989965 0  1 0.09999999999981467 0  1 0.1499999999997036 0  1 0.1999999999995579 0  1 0.2499999999994121 0  1 0.2999999999992664 0  1 0.3499999999991206 0  1 0.3999999999989749 0  1 0.4499999999988292 0  1 0.4999999999986943 0  1 0.5499999999988151 0  1 0.5999999999989468 0  1 0.6499999999990784 0  1 0.69999999999921 0  1 0.7499999999993417 0  1 0.7999999999994734 0  1 0.8499999999996051 0  1 0.8999999999997368 0  1 0.9499999999998684 0  0.9499999999997918 1 0  0.8999999999995836 1 0  0.8499999999996529 1 0  0.7999999999999998 1 0  0.7500000000003466 1 0  0.7000000000006934 1 0  0.6500000000010401 1 0  0.6000000000013869 1 0  0.5500000000017335 1 0  0.5000000000020587 1 0  0.4500000000018723 1 0  0.4000000000016644 1 0  0.3500000000014564 1 0  0.3000000000012483 1 0  0.2500000000010403 1 0  0.2000000000008322 1 0  0.1500000000006241 1 0  0.100000000000416 1 0  0.05000000000020799 1 0  -0.1 1.05000000000004 0  -0.1 1.000000000000079 0  -0.1 0.9500000000001624 0  -0.1 0.9000000000003032 0  -0.1 0.850000000000444 0  -0.1 0.8000000000005848 0  -0.1 0.7500000000007256 0  -0.1 0.7000000000008665 0  -0.1 0.6500000000010508 0  -0.1 0.6000000000012352 0  -0.1 0.5500000000014196 0  -0.1 0.500000000001539 0  -0.1 0.4500000000014195 0  -0.1 0.4000000000013 0  -0.1 0.3500000000011588 0  -0.1 0.3000000000010178 0  -0.1 0.2500000000008986 0  -0.1 0.2000000000007579 0  -0.1 0.1500000000006174 0  -0.1 0.1000000000005272 0  -0.1 0.05000000000040083 0  -0.1 2.671196597248127e-13 0  -0.1 -0.0499999999998666 0  -0.0500000000000906 -0.1 0  -1.730560139634463e-13 -0.1 0  0.04999999999975802 -0.1 0  0.09999999999961506 -0.1 0  0.1499999999994613 -0.1 0  0.199999999999302 -0.1 0  0.2499999999991446 -0.1 0  0.2999999999990088 -0.1 0  0.3499999999988296 -0.1 0  0.3999999999986936 -0.1 0  0.4499999999985143 -0.1 0  0.4999999999984002 -0.1 0  0.5499999999985247 -0.1 0  0.5999999999986493 -0.1 0  0.6499999999987955 -0.1 0  0.6999999999989417 -0.1 0  0.7499999999990659 -0.1 0  0.7999999999992116 -0.1 0  0.8499999999993573 -0.1 0  0.8999999999994526 -0.1 0  0.949999999999584 -0.1 0  0.9999999999997226 -0.1 0  1.049999999999861 -0.1 0  1.1 -0.0500000000000906 0  1.1 -1.730560139634463e-13 0  1.1 0.04999999999975802 0  1.1 0.09999999999961506 0  1.1 0.1499999999994613 0  1.1 0.199999999999302 0  1.1 0.2499999999991446 0  1.1 0.2999999999990088 0  1.1 0.3499999999988296 0  1.1 0.3999999999986936 0  1.1 0.4499999999985143 0  1.1 0.4999999999984002 0  1.1 0.5499999999985247 0  1.1 0.5999999999986493 0  1.1 0.6499999999987955 0  1.1 0.6999999999989417 0  1.1 0.7499999999990659 0  1.1 0.7999999999992116 0  1.1 0.8499999999993573 0  1.1 0.8999999999994526 0  1.1 0.949999999999584 0  1.1 0.9999999999997226 0  1.1 1.049999999999861 0  1.05000000000004 1.1 0  1.000000000000079 1.1 0  0.9500000000001624 1.1 0  0.9000000000003032 1.1 0  0.850000000000444 1.1 0  0.8000000000005848 1.1 0  0.7500000000007256 1.1 0  0.7000000000008665 1.1 0  0.6500000000010508 1.1 0  0.6000000000012352 1.1 0  0.5500000000014196 1.1 0  0.500000000001539 1.1 0  0.4500000000014195 1.1 0  0.4000000000013 1.1 0  0.3500000000011588 1.1 0  0.3000000000010178 1.1 0  0.2500000000008986 1.1 0  0.2000000000007579 1.1 0  0.1500000000006174 1.1 0  0.1000000000005272 1.1 0  0.05000000000040083 1.1 0  2.671196597248127e-13 1.1 0  -0.0499999999998666 1.1 0  0.2985827488691062 0.6543942984773768 0  0.2874397922301325 0.6365416502162703 0  0.2794412461664729 0.6157847092710153 0  0.2737520227845379 0.5933790762766034 0  0.2697331043254108 0.570272921592034 0  0.2669919840796615 0.5468839444518312 0  0.265325211729723 0.5233210878840255 0  0.2648157728592388 0.4996661391503776 0  0.26540154673254 0.4760082966375591 0  0.2670088176617439 0.4524047916815142 0  0.2697396338283881 0.4289835146480801 0  0.2738013399544717 0.4058950349126621 0  0.2795248031464644 0.383557741846722 0  0.2875169653296893 0.3627484021430174 0  0.2987273067019249 0.3448570344405589 0  0.3219144967987486 0.3153621509211672 0  0.3375532998433892 0.2999773454854884 0  0.3562897093978226 0.2874629464285516 0  0.3764956253768548 0.277299132707498 0  0.3971300369527044 0.2690890606614013 0  0.4178414335425636 0.2625301166248453 0  0.438401385555126 0.2574382766781593 0  0.4589295665693792 0.253647763939202 0  0.4794899323750497 0.2513782451161715 0  0.5000533615022286 0.250639725328445 0  0.5206096197254179 0.2514285722635614 0  0.5411660107365293 0.2537116042242055 0  0.5617587475142518 0.2574390233552349 0  0.5823475239711948 0.2625774905715216 0  0.6031856357087853 0.2691991843146115 0  0.6238909352177228 0.2774571235703307 0  0.643936295036558 0.2876747909607983 0  0.6624573473638763 0.3001753993879669 0  0.6779035063739656 0.3155297069965524 0  0.7011102697843126 0.345267820854469 0  0.7120429504597138 0.3629293513583597 0  0.7199361541004445 0.3837003261560932 0  0.7255159056130679 0.4060495466131596 0  0.7294286859377571 0.429110499935245 0  0.7320335763430894 0.4524631673425174 0  0.7334938086127416 0.4759452613794586 0  0.7339032462158379 0.4994843520724681 0  0.733222195512274 0.5230001827954005 0  0.7316762153368611 0.5463901987862098 0  0.7291403066687415 0.5696924266738935 0  0.7253394997387383 0.592755397865498 0  0.7198607747025433 0.6151966600245813 0  0.7120443938412631 0.6360462329170106 0  0.7011603692737085 0.6537989284458448 0  0.6780037961398482 0.6835096867394732 0  0.6625846395750159 0.6988607103727852 0  0.6441042457012565 0.7114120101531911 0  0.6240339873194196 0.7216589793438764 0  0.6032806387080156 0.7299601625822055 0  0.5823796460271576 0.7366210991530115 0  0.5617495127395291 0.7417798348057379 0  0.541131830699535 0.7454936115103565 0  0.5205837930741047 0.7477387767959331 0  0.5000786740475528 0.7485026393354971 0  0.4795487678743091 0.747768420837524 0  0.4589920531871665 0.745491471877871 0  0.4384616419958563 0.741725642300794 0  0.4178065110935972 0.7366603055500538 0  0.3969825461599717 0.730125744790615 0  0.3763258946675255 0.721940368672215 0  0.3561554180437018 0.7117863003214071 0  0.3374639014081275 0.6992593654951558 0  0.3218654704892305 0.6838787019487369 0  0.3880778855490822 0.3000750736829433 0  0.2912931742402398 0.4400798422436084 0  0.3879691465979038 0.6991355560636825 0  0.291276714079212 0.5592500580073548 0  0.7061951077813914 0.5816709854523746 0  0.5918364380943462 0.7070819354428981 0  0.6112226809425348 0.2993751544616707 0  0.7093977777351527 0.4393728518389576 0  0.7113110263792982 0.5107448468784375 0  0.5504154973021287 0.28174604579387 0  0.4498877230931903 0.284088551175266 0  0.4487113963358479 0.7154280913744689 0  0.5305595926571813 0.7188632976152119 0  0.288066021650754 0.4876823268932556 0  0.2974792968755716 0.3937696759505706 0  0.489987023569857 0.2825684145542554 0  0.303156412435513 0.6041286176667457 0  0.6957050974855762 0.391705898740655 0  0.4898448782762329 0.7201925519052376 0  0.6321201375882448 0.691010913374244 0  0.3484055899854447 0.3208126456196537 0  0.6516911111406356 0.3226209860370507 0  0.3487485437033603 0.6811824860582517 0  0.6928269942486646 0.6284998279352009 0  0.3128645415569475 0.3507448213152179 0  0.3148489767608896 0.6475913573851417 0  0.6698655244637012 0.6695408775243749 0  0.6873824033898758 0.3506021551374282 0  0.3680590048309554 0.6909162705443331 0  0.3781052242298006 0.6696660661827115 0  0.3982170577549038 0.6758603066901359 0  0.3869108704601931 0.6469716759863848 0  0.4081641689260814 0.6519024318455977 0  0.3951486582881718 0.6208818064867302 0  0.4208983159512958 0.6251012962026439 0  0.4050547937670945 0.588986121114478 0  0.3693490704264147 0.6151608085052997 0  0.4365927927334478 0.5917140362626757 0  0.4173561258363827 0.5513992850983128 0  0.3795336280739244 0.5553968328658527 0  0.3950253111276396 0.5146754159232724 0  0.3582931503825785 0.5164329080614787 0  0.371213782641547 0.4806482098153917 0  0.4094966146338091 0.47437849382686 0  0.3901305099404618 0.4402320159187602 0  0.4243221796957398 0.4326914959554479 0  0.4065191047985853 0.4000786059125555 0  0.4372341977823028 0.3845997244552905 0  0.3742320152086032 0.4047971811537183 0  0.4158462067767937 0.3628368231250024 0  0.4456198808761842 0.6297931806383594 0  0.4683888184496847 0.602083594103108 0  0.4852075795723972 0.6323284949557205 0  0.5017030878695207 0.6044415039754313 0  0.5175237348438997 0.6324877472215956 0  0.5342181564359998 0.6043043915676792 0  0.5495278114501669 0.6317850371154256 0  0.5665015220602827 0.6036442837908407 0  0.581995916511963 0.6328395272592148 0  0.5990849348185378 0.5946308606253193 0  0.5850421092867251 0.55
[...]
<PointData  Scalars="v"> 
<DataArray  type="Float64"  Name="v"  format="ascii">-6.7610272428169583e-22  2.1728030366347450e-22  3.1820682589078163e-21  3.7419521610326311e-21  -1.6410054911331191e-22  4.1791287026022813e-23  -1.8872814427220389e-22  -2.5045875993857666e-24  2.0521138305877644e-04  1.9272995871033832e-04  2.0883267063002519e-04  2.2315390291825473e-04  2.8501981035629462e-04  -3.7528544067062874e-21  -7.2238945477158345e-21  8.6312023996315021e-21  -8.6708667529073676e-20  7.1752342045529921e-20  2.9571882494094223e-20  -3.6238464246693310e-20  3.0835633477091886e-20  -3.7517629915458770e-20  8.4983793959770213e-20  4.1092342108608771e-21  -1.2558694972067931e-20  7.6242535368340026e-22  4.7180312230795091e-20  2.4387769391368365e-21  2.9485561785561430e-21  -3.9664570959266125e-21  4.0039736275460784e-21  6.2655825963816123e-21  -3.1079224895378376e-21  -1.5367035667807023e-21  3.0246209594515507e-21  2.3236191594266561e-22  -1.0185375951707026e-20  -3.3767769188774106e-20  4.2013509667716923e-20  9.8488177024809492e-21  1.9161098162575939e-21  9.5371949429507180e-21  -3.9624252633775972e-21  -1.5402197029571276e-20  1.8371947565261313e-20  -4.4403055117237684e-21  3.1215523753932619e-20  2.3871143769584381e-20  -6.4751476040709953e-21  -7.0521790046693929e-22  -4.7752719775545776e-21  8.0573072617210757e-21  2.0452496819534971e-20  -5.0062133061124519e-21  2.1308298756005236e-20  1.1529537030693887e-20  5.7502508655515995e-20  -2.6357821969691494e-20  -6.0457178570242178e-20  2.1230886519748742e-20  4.9441241732017744e-20  -1.6155943799282668e-21  -9.6428412664710397e-21  1.2238075578378703e-20  -2.2014268389753855e-20  -4.9931688701812938e-21  1.1402023400083400e-20  -4.3441859226310972e-21  -6.6504584970027881e-21  -1.4611537495480411e-20  4.8608073764102712e-21  5.9304365724402436e-21  3.2252780729922289e-20  2.3794696835490132e-20  -5.8919934850604638e-21  -9.0586764857989325e-21  1.1343197478539450e-20  -2.7812905207649933e-21  4.1349839214892630e-21  -3.7313504233814695e-20  -5.6201819012058623e-20  1.6674139505109071e-20  -2.8787555095141636e-20  -3.1663177822236972e-20  2.3407396410554699e-20  1.7743264708049070e-20  1.5815473128060062e-21  1.7364604298191883e-20  4.8391633300466982e-21  5.1755300500140259e-24  1.8822372265611506e-22  -1.2400574001504332e-21  2.8910870392355168e-22  -2.9949277883109509e-21  -7.0228062424959428e-21  5.6643392995178191e-21  4.7772834663632189e-21  -2.3360272256398419e-21  -7.8162055857432099e-22  1.7026234013776056e-21  6.3100739562826780e-21  3.8913168643619108e-21  -3.1156543908576695e-21  1.5722926386956103e-21  4.6338456999703057e-21  1.5360612931344290e-21  -4.1033922201086695e-22  -5.1545322457063721e-22  5.4212059223457763e-22  7.8068913963699683e-22  6.2388213707982771e-23  -1.0696844158177146e-22  4.5082208272095394e-23  -1.6019860289381414e-22  -4.3988007994005640e-22  -1.5916073238904046e-22  3.3544694152435851e-22  3.2695996359888630e-22  -2.8702901874166479e-21  -2.0632322945705712e-21  3.6321187941013778e-21  2.6949321645743189e-21  1.2349888139673223e-25  1.6544625216502022e-21  -3.4177003673614747e-22  -1.2264431671232241e-21  1.1954501739398659e-21  9.8241139466778944e-22  3.4834152338868435e-21  3.0126203718142740e-21  5.1672572400564991e-22  -9.1049807279149173e-22  -2.2815977529522505e-22  1.9386052989625912e-22  1.8178016835469678e-22  3.1136053776218044e-23  3.6900701755836094e-22  1.5444410753244728e-21  2.5811980483418875e-21  1.1719363329061538e-21  1.1059283676902099e-21  4.1964051731174094e-21  5.2809142436948859e-21  -3.3155939161057405e-21  -6.7465557371614591e-21  2.0567772600007408e-21  6.4006173742603742e-21  4.6657882955999725e-22  -1.0623455872283760e-21  5.8824241585596350e-22  -2.1203926347887415e-21  -1.5783073675429208e-21  1.3867006860588641e-21  -1.0486520707870121e-22  -1.5966763114126051e-21  -1.5750029366638456e-21  -2.9059562660253123e-23  2.9518595853163638e-22  -1.6114478183679007e-23  4.9069526859043179e-22  3.5536672125391595e-22  1.6783805007960025e-21  3.9646255767037606e-21  3.6625148145622715e-21  3.7053126272248356e-22  -1.1202746737583868e-21  3.5358297411218202e-22  1.8254737421235288e-21  1.1592820980250894e-21  -6.1041311420984265e-21  -6.0169296867553428e-21  -1.2522736056589919e-22  -2.9595308009294822e-21  -3.3034338923675432e-21  2.1779189553665546e-21  3.4333860521069674e-21  1.1356993871638298e-21  1.6732148043685148e-21  1.1303232644096285e-21  -4.0016529401972986e-23  -2.3906197473216153e-23  2.0982864091888652e-04  2.1743012018578001e-04  2.2816024754078717e-04  2.4113494798760359e-04  2.5268171707935855e-04  2.6097720062603273e-04  2.6569341391023931e-04  2.6657502828571688e-04  2.6394224739939489e-04  2.5724005068691923e-04  2.4694547271114089e-04  2.3395034126914269e-04  2.1968040398907872e-04  2.0761934193668901e-04  1.9797310096442594e-04  1.8322458714578821e-04  1.7533791078306341e-04  1.6950286199358722e-04  1.6555016684168108e-04  1.6321574923891765e-04  1.6207558882233916e-04  1.6089069768198479e-04  1.6026132138252918e-04  1.6034192230113031e-04  1.6073103166582513e-04  1.6173543380145001e-04  1.6335558864906996e-04  1.6581679959691759e-04  1.6877329182162447e-04  1.7212283612423710e-04  1.7617171988672801e-04  1.8154009505359843e-04  1.8844715419631553e-04  1.9771640652658311e-04  2.1580866711691518e-04  2.2590536202927010e-04  2.3943680453550263e-04  2.5502457672957422e-04  2.6889277215583793e-04  2.8022491851433548e-04  2.8870742715335145e-04  2.9261145668539601e-04  2.9130688691084616e-04  2.8622168052310490e-04  2.7707449113974073e-04  2.6464824503148905e-04  2.5058818462679366e-04  2.3810124805547059e-04  2.2858018455364096e-04  2.1253572795465090e-04  2.0425806514035342e-04  1.9907554991315397e-04  1.9447639772609627e-04  1.9109797143201978e-04  1.8835146688701477e-04  1.8611099084685657e-04  1.8431429965661141e-04  1.8299859794625607e-04  1.8195754855631680e-04  1.8134095812172215e-04  1.8093785426007809e-04  1.8060930902851028e-04  1.8056462999610674e-04  1.8113265632962823e-04  1.8267332629846899e-04  1.8540017501392404e-04  1.9029679724975749e-04  1.9681030423969795e-04  1.8683838654559037e-04  2.5522884145093272e-04  2.0385781240593866e-04  2.6040933049526442e-04  2.7460689897817087e-04  2.1127161927534443e-04  1.9662934798608166e-04  2.7668045259094379e-04  2.9200591417815941e-04  1.8602687201697929e-04  1.8296273475770948e-04  2.0217625975472132e-04  2.0525945959630452e-04  2.6723921195779583e-04  2.3327767809786881e-04  1.8479814376053477e-04  2.4437277235974997e-04  2.5326158140972100e-04  2.0289637723709883e-04  2.1295002141984935e-04  1.9155499104901301e-04  2.0755845522795583e-04  1.9980550165884305e-04  2.4597946611315481e-04  1.9773892730488323e-04  2.1356090277602444e-04  2.1576691330608524e-04  2.1776379064997214e-04  2.0168321331070463e-04  2.1888123808251229e-04  2.1789378786090980e-04  2.3241348902566940e-04  2.3212715264646209e-04  2.4605397281115881e-04  2.4743022919550316e-04  2.6357407697981400e-04  2.4714284379093838e-04  2.6342754453888420e-04  2.7486468113965476e-04  2.7132133062798309e-04  2.7847165553676796e-04  2.7783214424923424e-04  2.7585579897557134e-04  2.7560352620052111e-04  2.6453785933423947e-04  2.6300952905867071e-04  2.4755297233105313e-04  2.4093553541670455e-04  2.4761017457768444e-04  2.2636942156775740e-04  2.4786027838015609e-04  2.6180517959270561e-04  2.5021625674459530e-04  2.6279207205931471e-04  2.5278703337605044e-04  2.6493805489371630e-04  2.5392869929098991e-04  2.6785000919891277e-04  2.5412629519490934e-04  2.7317647742862699e-04  2.8471783525907944e-04  2.8766876594700367e-04  2.9287296348831410e-04  2.7554081462498613e-04  2.8993340840176551e-04  2.3635886124788959e-04  2.2814424665378884e-04  2.7325515600546812e-04  2.7634669649200417e-04  2.2160919969822299e-04  2.3719896497885010e-04  2.1745196421174779e-04  2.0664037802931644e-04  2.3119880650526462e-04  2.3060731823867190e-04  2.1603684225276036e-04  2.3887768645596160e-04  2.1465791878313637e-04  2.3716177318608696e-04  2.5990835922809534e-04  2.5299494722047619e-04  2.3811744437646199e-04  2.4958735929407665e-04  2.7586453216134159e-04  2.6938305029808595e-04  2.4774176762756606e-04  2.6451081315912969e-04  2.7991707132559124e-04  2.4597209068951559e-04  2.6085629150772227e-04  2.4321792404768510e-04  2.2895404778687742e-04  2.8962676598485781e-04  2.7832615952348949e-04  2.6365038182017453e-04  2.8767634237373673e-04  2.9647824386600343e-04  2.6542356057849506e-04  2.5208410287976408e-04  2.4695067578374950e-04  2.1644397949623271e-04  1.9924804979983484e-04  2.9164015667959087e-04  2.0235193913390148e-04  2.6532599288927190e-04  2.5110166611263667e-04  2.3578384260524129e-04  2.7517693180332311e-04  2.6742839605725492e-04  2.3952816525556620e-04  2.2485342089671427e-04  2.1936689870507515e-04  2.6881793095550601e-04  2.6453225204964612e-04  2.7033961731228026e-04  2.6444189815119607e-04  2.7650502956945661e-04  2.5077264869417424e-04  2.7451080611927864e-04  2.9648592422227258e-04  2.9912320530565566e-04  2.9630287552351715e-04  2.9536395236170635e-04  2.9557736714954161e-04  2.9017266336396120e-04  2.8444350814335042e-04  2.2995665891569506e-04  2.1250471535863691e-04  2.7236663073098259e-04  2.8880469727301063e-04  2.2877567230050643e-04  2.4143525724897144e-04  2.5587644124079590e-04  2.4001027317015791e-04  2.2928120884765408e-04  2.2762042664564673e-04  2.1283189488484759e-04  2.1110825247268292e-04  2.5400656347025318e-04  2.3846476833431745e-04  2.5470274992489734e-04  2.0848074689041660e-04  2.1333485531029937e-04  1.8458814216784855e-04  2.7354437646267502e-04  2.6366947786226496e-04  2.0196344556704958e-04  2.2330630076933440e-04  2.2233017188358971e-04  2.1642693400089209e-04  2.0230230333241234e-04  2.1699310056099528e-04  2.3233739329220411e-04  2.6476588580609626e-04  2.0270865460589419e-04  1.9201523446130657e-04  1.9780717779397782e-04  1.8622023854306534e-04  1.8306452880033277e-04  1.8316498083361993e-04  2.2852400828911478e-04  2.3967964910979634e-04  2.0335544421765629e-04  2.6632140119321908e-04  2.7507830762917902e-04  2.0858985091617248e-04  2.2376232929295937e-04  2.0632168408339779e-04  2.1325414082693856e-04  2.1602832084195026e-04  2.4265946739923883e-04  2.6414350357121158e-04  2.0284905636892272e-04  2.3642372391038854e-04  1.9252747715520994e-04  2.0358053052961953e-04  1.8298951173382162e-04  1.9675475607256967e-04  2.2909525579206241e-04  1.9841493472011511e-04  2.8402998937865522e-04  2.5992949621791376e-04  2.8024881414520137e-04  2.9628433608441069e-04  2.5327741351799870e-04  2.4466610184065634e-04  2.2974907899074833e-04  2.3412733600215190e-04  1.8381608229224846e-04  2.3021816652582874e-04  2.1991228833339636e-04  2.7606706499235705e-04  1.8269566770596162e-04  2.7749159618342033e-04  2.7894208218757956e-04  2.7493082857022957e-04  2.8470950840082812e-04  2.3201497659014388e-04  2.1395725878495893e-04  2.1599262470386370e-04  1.9892595745183794e-04  2.1668692846543578e-04  2.6742911277715070e-04  2.8971913500305509e-04  2.8210841807745134e-04  2.5532049018659803e-04  2.1928238262321431e-04  2.0719903484049169e-04  2.2894471465107448e-04  2.7372454720580729e-04  2.3091604570092572e-04  2.9215080993115917e-04  2.8429837265827630e-04  2.7460441891870546e-04  2.5894752485639016e-04  2.2787805824855506e-04  2.1799643100786414e-04  2.0077085266390386e-04  2.2111796997099245e-04  2.5833624602273519e-04  2.6442028145227242e-04  1.9942630830697787e-04  2.1588751302246118e-04  2.8464146155144732e-04  2.5923338303808551e-04  2.1554914620386240e-04  2.7860932435551448e-04  2.9025099278689103e-04  1.9738638636141020e-04  2.7954210710503521e-04  2.2987109292325580e-04  2.6156827366527420e-04  2.2472204791479082e-04  2.3966183522328090e-04  2.3870444251732555e-04  1.9756628298804401e-04  2.8819407004777913e-04  2.3575089575345365e-04  1.7628826553803544e-04  1.9525904818866989e-04  1.9015180342222705e-04  2.0927119472697987e-04  2.4775909133490433e-04  2.1698557768011736e-04  2.8327471249472920e-04  2.4068017872677048e-04  2.0193523550047365e-04  2.4995457156253936e-04  2.3181675351356109e-04  2.5269867018108054e-04  2.2940791279016417e-04  2.4639069510916172e-04  2.1886769751397760e-04  2.4413508043890205e-04  2.8120275779497860e-04  2.4262107697184271e-04  2.7168309820232837e-04  2.8883793498584869e-04  2.7539818412959850e-04  2.5994538179831869e-04  2.2124857038159504e-04  2.1256879928217010e-04  1.9664834790802474e-04  2.7773787608156121e-04  2.3169461629237090e-04  2.8738998510950562e-04  2.3083679817714569e-04  1.7450673104927648e-04  1.7189861839068531e-04  1.7203187265158717e-04  1.8022058570738901e-04  1.8099601873909659e-04  1.9332713719087395e-04  1.5149328381235786e-04  1.5507094004949183e-04  1.5397867242466010e-04  1.6237847582338817e-04  1.7674076698605821e-04  1.6521488256050250e-04  2.9812903007345014e-05  2.0764655019852987e-05  3.0411186486376194e-05  2.3884157191647371e-05  2.4780158949793448e-04  2.1791510367557290e-04  2.2855802593570147e-04  2.6915628891837555e-04  2.1965591968008572e-04  2.0900179200660356e-04  2.6740801200592209e-04  2.3956297114999820e-04  1.9983612875594346e-04  2.0583931975846426e-04  1.9183727638961501e-04  1.9099638938984177e-04  1.7391657810652896e-04  1.7166478354254251e-04  2.4076519184140830e-05  1.9471047468512635e-05  2.0682335628203872e-05  2.2486227650720091e-05  4.0698718046888173e-05  4.1121576470529266e-05  3.9625205816886233e-05  1.5293785855964782e-04  1.5226950002199496e-04  1.8647016427974920e-04  2.0007318174884129e-04  6.8440785373537839e-05  5.7376283887895363e-05  5.8031361995850051e-05  6.7287230945312253e-05  6.8307210721620446e-05  7.2241402492733290e-05  6.7779773645478304e-05  2.5521768179084320e-05  1.7447706757733642e-04  1.8855981580797636e-04  2.7458377240833641e-05  2.2468815791649771e-05  2.4215715469189941e-05  1.7461832209935747e-04  1.7655138672154473e-04  1.6102440459508246e-04  1.5759359705343380e-04  1.4384304404941261e-04  1.3842970383964195e-04  1.5298315430814635e-04  1.2422560668150706e-04  1.2829050237166524e-04  1.1672434874233735e-04  1.8782305667103927e-04  1.8806025227454079e-04  1.7371467559737128e-04  1.6942344699500013e-04  1.7887484123460371e-04  1.5592794229057078e-04  1.4958165223126892e-04  1.3545488075509523e-04  1.4012127508520827e-04  1.2654858644499183e-04  2.2067541856632872e-04  2.0676262966593502e-04  1.9530435881086940e-04  1.9335869628129174e-04  1.7883900531853953e-04  1.7688017357135686e-04  1.6095684535547737e-04  1.5744250041601328e-04  1.4116980447735915e-04  1.3615447044035313e-04  2.7540783886495181e-04  2.4907534711684695e-04  2.3637240014767131e-04  2.5128971347963906e-04  1.6030792419484950e-04  1.1887526928873235e-04  1.2206740009705020e-04  1.1981189681719658e-04  1.0881986450685741e-04  1.1398717422420856e-04  3.9349008013121754e-05  1.1336761105468522e-04  1.3153342748461607e-04  1.3027087666682102e-04  1.2514678020417386e-04  1.4181675667846309e-04  1.5432296057436886e-04  2.5134422773869555e-04  9.9306265579789308e-05  9.0505872791090541e-05  2.3584497629256276e-05  2.2921851566685043e-05  2.1947223634814590e-05  8.8342908606602543e-05  9.8515646449574875e-05  1.5682274892326060e-04  1.7145408815242422e-04  1.0418005396797167e-04  1.1725948047952525e-04  1.1580881775228848e-04  1.3029061032836521e-04  1.0122442888723490e-04  1.2167233756241884e-04  1.0059045218840823e-04  1.2338635825374060e-04  9.9127475603475170e-05  1.1851690825946128e-04  9.1424552880236477e-05  1.0990211375014971e-04  8.9449495713728207e-05  1.0734516774668854e-04  8.6664025013667213e-05  1.0384765299748254e-04  8.3802759467949353e-05  1.0134629236914083e-04  8.1644066742374315e-05  9.9466420620180395e-05  8.0159346062693641e-05  9.8731043736706464e-05  7.9515844388826912e-05  9.9136831526387481e-05  9.6298922076189401e-05  1.1576835659900290e-04  9.3581484348671370e-05  1.1375252909302284e-04  9.1963038842692883e-05  1.1309811709233485e-04  9.1086749003445192e-05  1.1316815669538465e-04  9.6416537160199682e-05  1.0014859187365590e-04  1.7203696064905751e-04  1.8589685182583319e-04  1.0581710693449429e-04  1.0801690144116431e-04  8.0893552046238258e-05  1.0053980808132423e-04  8.2089688882194459e-05  1.0262408057755880e-04  8.3553998313655285e-05  9.2282420429288980e-05  1.1450087048988102e-04  9.3376055387961804e-05  1.1688379328612372e-04  9.5963775321934627e-05  1.3859452656252486e-04  1.1304642155831322e-04  1.2216113020301769e-04  1.3666175949766533e-04  1.3955106474996596e-04  1.2025109001320336e-04  1.2328569173017430e-04  1.3475267883220437e-04  7.7859449644951970e-05  1.1655184440510465e-04  7.0560613863854255e-05  1.3442357418526471e-04  6.0714951204197875e-05  1.1806895916720213e-04  9.0222752259418201e-05  7.8538202857569649e-05  7.7695495274236181e-05  6.9849738905415886e-05  1.0304047246410206e-04  8.5458225116075175e-05  1.3971846144176654e-04  8.3776326302132184e-05  1.2365573444252930e-04  1.3396428210928529e-04  1.2075322220334429e-04  1.4320523658510872e-04  1.8755539918875025e-04  7.7404766818441216e-05  9.8994383104849515e-05  5.4307318600943791e-05  1.4047054470018574e-04  1.6797167327231984e-05  2.1374467958895665e-04  1.5521028824267078e-04  7.4675900281637894e-05  1.5292376143283509e-04  1.9244617785888672e-04  6.5037862196091629e-05  1.5998371566066928e-04  1.7347836453053845e-04  2.0529378783040619e-04  1.8837442230697582e-04  1.9996583786016463e-04  1.7786336554714635e-04  1.8942360667381771e-04  1.6084640764840854e-04  1.7173330909657091e-04  1.5456620029930679e-04  2.0611083414362206e-04  1.8258539958508339e-04  2.1555639986590874e-04  1.9109598035070075e-04  2.2343685339994843e-04  1.9784219480091151e-04  2.3001503777983178e-04  9.4675688124740631e-05  8.6898651725092845e-05  8.3786726134356759e-05  1.0567939639346542e-04  2.1855569125030938e-04  2.2503830687027628e-04  6.0890585520789847e-05  2.0808930333978255e-04  7.8087929307213891e-05  7.3066612998433868e-05  1.6255949684465721e-04  1.5033747091415783e-05  1.6321971305732058e-05  1.3734801024762475e-05  1.8355990120044258e-04  2.0205151282587499e-04  1.5078679091387343e-04  1.2700077226770410e-04  1.5939636183144004e-04  6.6686296959069102e-05  6.1456279584675550e-05  7.1962589069601799e-05  1.2572669161611518e-04  1.5458254218276622e-04  1.8025795271259725e-04  1.8358804613093741e-04  1.4886895405123480e-04  1.7677731129946017e-04  2.0372362708131621e-04  2.0320253879340774e-04  1.6900938347861642e-04  1.9239451196533260e-04  1.5614967518439145e-04  1.8106078507269631e-04  2.1201420879259547e-04  2.0294102111583997e-04  1.6757309784102371e-04  1.9177406669708801e-04  1.5253468280422911e-04  1.7215609153184539e-04  2.0063252568850492e-04  1.8425037010671793e-04  1.5474644805116874e-04  1.7096340295683321e-04  1.3677365249673432e-04  1.5085965080298365e-04  1.1657098378918720e-04  1.2536362192630210e-04  1.5872347590931257e-04  1.6018194445691802e-04  1.5418839574557776e-04  1.2536552618541883e-04  1.4737001458933342e-04  1.4541116882387038e-04  9.7057534629262901e-05  1.4074460866671443e-04  1.3620150786493806e-04  1.5826758520505010e-04  2.4129139035087768e-04  1.4124356626340326e-04  1.5800293464717410e-04  1.6683097989986134e-04  2.3088914090400891e-04  1.7640699921671853e-04  9.2182549215322492e-05  1.0239323983898233e-04  2.4707993217622161e-04  6.2182183649661120e-05  6.3843594043228310e-05  1.4805166441109787e-04  2.2405157042466769e-04  9.1683047690169775e-05  2.4220741795895367e-04  2.4784303168141870e-04  2.3400767336271251e-04  2.1541238833693675e-04  7.0836809906856313e-05  7.5536492665012508e-05  8.4140417477266384e-05  2.5188368068256251e-04  2.2167115592996656e-04  1.1891371985852293e-04  1.0928081683945675e-04  6.7066628109939316e-05  5.2195450117620237e-05  5.6524635763077718e-05  1.2967942040815832e-04  7.4224876774525893e-05  5.1456788747088717e-05  6.0821319298603643e-05  1.1077586381376282e-04  2.3109566806506888e-04  9.1660462851402022e-05  8.2348526786764118e-05  1.0891970699577073e-04  2.0642799430333511e-04  2.1891210399761746e-04 