<?xml version="1.0"?>
<VTKFile type="UnstructuredGrid"  version="0.1"  >
<UnstructuredGrid>
<Piece  NumberOfPoints="1297" NumberOfCells="2496">
<Points>
<DataArray  type="Float64"  NumberOfComponents="3"  format="ascii">0 0 0  0 1 0  1 1 0  1 0 0  1.1 -0.1 0  -0.1 -0.1 0  1.1 1.1 0  -0.1 1.1 0  0.3080116710934958 0.6620756635372465 0  0.3079429469355511 0.3378617713293364 0  0.6920592526983441 0.3378968745449629 0  0.6922333576012946 0.6613959020730658 0  0.4998500061294529 0.4997428803810828 0  0 0.9499999999997918 0  0 0.8999999999995836 0  0 0.8499999999996529 0  0 0.7999999999999998 0  0 0.7500000000003466 0  0 0.7000000000006934 0  0 0.6500000000010401 0  0 0.6000000000013869 0  0 0.5500000000017335 0  0 0.5000000000020587 0  0 0.4500000000018723 0  0 0.4000000000016644 0  0 0.3500000000014564 0  0 0.3000000000012483 0  0 0.2500000000010403 0  0 0.2000000000008322 0  0 0.1500000000006241 0  0 0.100000000000416 0  0 0.05000000000020799 0  0.04999999999989965 0 0  0.09999999999981467 0 0  0.1499999999997036 0 0  0.1999999999995579 0 0  0.2499999999994121 0 0  0.2999999999992664 0 0  0.3499999999991206 0 0  0.3999999999989749 0 0  0.4499999999988292 0 0  0.4999999999986943 0 0  0.5499999999988151 0 0  0.5999999999989468 0 0  0.6499999999990784 0 0  0.69999999999921 0 0  0.7499999999993417 0 0  0.7999999999994734 0 0  0.8499999999996051 0 0  0.8999999999997368 0 0  0.9499999999998684 0 0  1 0.04999999999989965 0  1 0.09999999999981467 0  1 0.1499999999997036 0  1 0.1999999999995579 0  1 0.2499999999994121 0  1 0.2999999999992664 0  1 0.3499999999991206 0  1 0.3999999999989749 0  1 0.4499999999988292 0  1 0.4999999999986943 0  1 0.5499999999988151 0  1 0.5999999999989468 0  1 0.6499999999990784 0  1 0.69999999999921 0  1 0.7499999999993417 0  1 0.7999999999994734 0  1 0.8499999999996051 0  1 0.8999999999997368 0  1 0.9499999999998684 0  0.9499999999997918 1 0  0.8999999999995836 1 0  0.8499999999996529 1 0  0.7999999999999998 1 0  0.7500000000003466 1 0  0.7000000000006934 1 0  0.6500000000010401 1 0  0.6000000000013869 1 0  0.5500000000017335 1 0  0.5000000000020587 1 0  0.4500000000018723 1 0  0.4000000000016644 1 0  0.3500000000014564 1 0  0.3000000000012483 1 0  0.2500000000010403 1 0  0.2000000000008322 1 0  0.1500000000006241 1 0  0.100000000000416 1 0  0.05000000000020799 1 0  -0.1 1.05000000000004 0  -0.1 1.000000000000079 0  -0.1 0.9500000000001624 0  -0.1 0.9000000000003032 0  -0.1 0.850000000000444 0  -0.1 0.8000000000005848 0  -0.1 0.7500000000007256 0  -0.1 0.7000000000008665 0  -0.1 0.6500000000010508 0  -0.1 0.6000000000012352 0  -0.1 0.5500000000014196 0  -0.1 0.500000000001539 0  -0.1 0.4500000000014195 0  -0.1 0.4000000000013 0  -0.1 0.3500000000011588 0  -0.1 0.3000000000010178 0  -0.1 0.2500000000008986 0  -0.1 0.2000000000007579 0  -0.1 0.1500000000006174 0  -0.1 0.1000000000005272 0  -0.1 0.05000000000040083 0  -0.1 2.671196597248127e-13 0  -0.1 -0.0499999999998666 0  -0.0500000000000906 -0.1 0  -1.730560139634463e-13 -0.1 0  0.04999999999975802 -0.1 0  0.09999999999961506 -0.1 0  0.1499999999994613 -0.1 0  0.199999999999302 -0.1 0  0.2499999999991446 -0.1 0  0.2999999999990088 -0.1 0  0.3499999999988296 -0.1 0  0.3999999999986936 -0.1 0  0.4499999999985143 -0.1 0  0.4999999999984002 -0.1 0  0.5499999999985247 -0.1 0  0.5999999999986493 -0.1 0  0.6499999999987955 -0.1 0  0.6999999999989417 -0.1 0  0.7499999999990659 -0.1 0  0.7999999999992116 -0.1 0  0.8499999999993573 -0.1 0  0.8999999999994526 -0.1 0  0.949999999999584 -0.1 0  0.9999999999997226 -0.1 0  1.049999999999861 -0.1 0  1.1 -0.0500000000000906 0  1.1 -1.730560139634463e-13 0  1.1 0.04999999999975802 0  1.1 0.09999999999961506 0  1.1 0.1499999999994613 0  1.1 0.199999999999302 0  1.1 0.2499999999991446 0  1.1 0.2999999999990088 0  1.1 0.3499999999988296 0  1.1 0.3999999999986936 0  1.1 0.4499999999985143 0  1.1 0.4999999999984002 0  1.1 0.5499999999985247 0  1.1 0.5999999999986493 0  1.1 0.6499999999987955 0  1.1 0.6999999999989417 0  1.1 0.7499999999990659 0  1.1 0.7999999999992116 0  1.1 0.8499999999993573 0  1.1 0.8999999999994526 0  1.1 0.949999999999584 0  1.1 0.9999999999997226 0  1.1 1.049999999999861 0  1.05000000000004 1.1 0  1.000000000000079 1.1 0  0.9500000000001624 1.1 0  0.9000000000003032 1.1 0  0.850000000000444 1.1 0  0.8000000000005848 1.1 0  0.7500000000007256 1.1 0  0.7000000000008665 1.1 0  0.6500000000010508 1.1 0  0.6000000000012352 1.1 0  0.5500000000014196 1.1 0  0.500000000001539 1.1 0  0.4500000000014195 1.1 0  0.4000000000013 1.1 0  0.3500000000011588 1.1 0  0.3000000000010178 1.1 0  0.2500000000008986 1.1 0  0.2000000000007579 1.1 0  0.1500000000006174 1.1 0  0.1000000000005272 1.1 0  0.05000000000040083 1.1 0  2.671196597248127e-13 1.1 0  -0.0499999999998666 1.1 0  0.2983501558693131 0.6488784805176928 0  0.2868295694747747 0.6313156679415922 0  0.2762007511526686 0.6117211652013136 0  0.2674084635777401 0.5904862199254862 0  0.2607785227822018 0.5683608947663397 0  0.2561925024727796 0.5457962862563451 0  0.2534700535545827 0.5229579500285298 0  0.2525989096472004 0.4999454509574467 0  0.2535039311760493 0.4769541437987879 0  0.2562046607212363 0.4540874747153866 0  0.2607931034667708 0.4314722479298831 0  0.267454176585984 0.4093523201751192 0  0.2762363752928552 0.3882085748764462 0  0.2868819702086715 0.3685656812978087 0  0.2983936916018358 0.3509410177263137 0  0.3227109713444593 0.3227624705503853 0  0.3392328307747702 0.308260198972519 0  0.3575832910542797 0.2948775214312205 0  0.3772191127494209 0.2834585495504429 0  0.3974698999062132 0.2741871384406801 0  0.4179738381256612 0.2669290545136662 0  0.4384312554800425 0.2614883221551186 0  0.4589434013804457 0.25768001555839 0  0.4794889177310159 0.255424888943954 0  0.5000351365574837 0.2546802325599571 0  0.5205887694016561 0.2554352772833414 0  0.5411486946665577 0.2577044454782431 0  0.5617271936023706 0.2615201073949779 0  0.582227087948243 0.2669736971633665 0  0.6028597197085845 0.274267551450839 0  0.6231707519657737 0.283595199205554 0  0.6426577804505162 0.295000129737924 0  0.660837272946099 0.3083250214504065 0  0.6772465660739345 0.3227562954195213 0  0.7015990108648812 0.3510623661933704 0  0.7128655851164887 0.3684822542076361 0  0.7234124900039248 0.3881473031705086 0  0.7320785647469932 0.4093819161435428 0  0.7385910907182605 0.4314949014523857 0  0.743037026586355 0.4540519215932207 0  0.7455717826110718 0.4767994921167035 0  0.746309693191348 0.4995885108469321 0  0.7453490513883514 0.5223196617571049 0  0.7427370952574143 0.5448997198195032 0  0.7383520338828379 0.567317170726458 0  0.7319845728903325 0.5893948355495864 0  0.7234612569426458 0.6107627146330576 0  0.7130153007907626 0.6305369932351044 0  0.7017897180587757 0.6480711228657747 0  0.6775784498257181 0.6764643275287223 0  0.6611923460140945 0.6909538995136886 0  0.6430758888861656 0.7043158163328291 0  0.6235686871713858 0.7158108148387565 0  0.6032094500867439 0.7252133076725333 0  0.5825005999809681 0.7325499676244394 0  0.561940112339216 0.7380193823626516 0  0.5413374547347273 0.7418317314458552 0  0.5207995729221845 0.7440808512332653 0  0.5003101853952611 0.744836542929025 0  0.4797988462640794 0.7441094983369099 0  0.4592570279866622 0.7418737313042111 0  0.4387449311015679 0.7380977731945013 0  0.4181747821967733 0.7326754324966709 0  0.3975425145671853 0.7254053822936462 0  0.377252892599881 0.7161463549676099 0  0.3576203924953613 0.7047415152640106 0  0.3392923764893385 0.6914142098971375 0  0.32275741305413 0.6770050679000237 0  0.3885871739553622 0.3056570323437746 0  0.2831268090241875 0.4426525048375481 0  0.3886739962711456 0.6939444346494459 0  0.283111022996279 0.5572538742415158 0  0.7128802508564266 0.5783871519705869 0  0.5918019426211909 0.7025441506442561 0  0.6107781006479187 0.3048790172039438 0  0.7178540870236266 0.4417910986723007 0  0.7217035699140719 0.5103925466890082 0  0.5504001510233364 0.2858582988058904 0  0.4499273535006715 0.2882197933214503 0  0.4489786960587981 0.7116871062860083 0  0.5307833393255944 0.7151795789944762 0  0.2779220456941801 0.4884017241666819 0  0.2934613333879961 0.3983176100980682 0  0.4899998070914841 0.2865704131048856 0  0.2992034710066951 0.6001097468538413 0  0.6995367317187667 0.3962185104052255 0  0.4900740790721829 0.7165574112345163 0  0.6317211730781577 0.6849481820237984 0  0.3487944199025881 0.3276282389360117 0  0.6515075664957812 0.3292379768452499 0  0.3494056863095136 0.6747016003563581 0  0.6949635855775693 0.6234814887739401 0  0.3117365637099518 0.356247880888627 0  0.3137003438406115 0.6427173932758711 0  0.6706595683673675 0.6634731429701048 0  0.6886962993365238 0.3558545663020568 0  0.3689131740179459 0.6849280402523505 0  0.3782626269816924 0.6644735574078529 0  0.3984596659565683 0.6711728676326341 0  0.3864111739083342 0.6424556234842046 0  0.407903339114934 0.6477366482163127 0  0.3939247439313839 0.6171048307485637 0  0.4201483916768244 0.6216007799581571 0  0.4031787517197504 0.5861535712797734 0  0.3674928932384255 0.6111781737630351 0  0.4354987782544346 0.5891173731092179 0  0.4151476787878104 0.54982312610985 0  0.3759983386342782 0.55345227997393 0  0.3915385085940694 0.5143230655354201 0  0.3530255645174101 0.5159771514413594 0  0.3666197152125041 0.481671284282338 0  0.4066649031808958 0.4755151603634694 0  0.3870454847815122 0.4426873934052731 0  0.4224904021700788 0.4351175580753477 0  0.4048614645498996 0.4035889020193798 0  0.4364254969736307 0.3880969721246759 0  0.3716547258476995 0.408585831466965 0  0.4151686332088744 0.367018512690695 0  0.4452391505922567 0.626505585121537 0  0.4680176083874784 0.5994559240264467 0  0.4852532575829728 0.6292404457239075 0  0.5019126785772624 0.6018343849345661 0  0.5179012906355328 0.6293765816441722 0  0.5349880932583646 0.6015949082164374 0  0.5502426549264858 0.6284666883459867 0  0.5678520161849914 0.6006773768895164 0  0.5830016644954488 0.6290757479378125 0  0.6012946285080073 0.5915009967335048 0  0.58755643477060
[...]
<PointData  Scalars="v"> 
<DataArray  type="Float64"  Name="v"  format="ascii">8.3380052837882976e-22  2.0219200885931908e-21  4.2549557795810715e-21  7.1949391330838953e-22  -2.8895790057884720e-23  -3.3896272239677777e-23  -2.5095358070685011e-22  -9.0123173819247639e-23  2.4295568730500609e-04  2.3733761181131971e-04  2.4777149636108769e-04  2.5543307406936523e-04  3.3703101757832433e-04  -1.7152997764702059e-21  -9.7979636391739589e-21  4.9046206869168877e-21  -6.8856493747641809e-20  7.8437886463682801e-20  3.4940422970818928e-20  -3.5095365903376408e-20  7.0470112899885466e-20  -3.0707159539364423e-20  1.2212594878240028e-19  9.1500984505718913e-20  -3.6819355726956569e-20  1.1608709363330558e-20  6.1187093943473713e-20  -6.1218953205590100e-21  6.1664381975620750e-21  -2.2987339632720361e-21  -6.1211799447629356e-21  5.7627053781709293e-21  -5.7237808067406755e-21  2.8750515149745292e-21  1.4174762611268331e-20  1.5688578109824154e-20  -1.8508871376135701e-20  -4.6123011178578161e-20  5.3476730120245132e-20  8.7832023862628992e-21  -5.8355744787570435e-21  1.9445646299049764e-20  -9.4206517798601743e-21  -2.6017568507194627e-20  2.2453630902585705e-20  -3.4622299368622896e-21  4.3234669458699836e-20  2.7213716651146549e-20  -1.7928215856985434e-20  2.6058579315253165e-21  -6.0586919385080665e-21  1.3903244711871975e-20  3.7760892947342690e-20  2.5114769481025577e-22  1.8628823916952243e-20  7.2648910917721558e-21  6.7624376111898204e-20  -3.3408881740438967e-20  -6.1877263251659675e-20  2.5730017312300117e-20  3.2476705569253779e-20  1.3207005464494527e-20  1.8316005663036183e-21  4.6525804002749542e-21  4.1901956375660226e-21  2.1354865120900886e-21  3.6568764912533926e-22  1.3592614987804413e-20  -4.2028718705465078e-21  -1.6385338204269666e-20  5.5261561145393220e-21  1.5054160831250120e-20  3.3641446912562902e-20  1.2041972395582439e-20  -9.8478039478537061e-21  -1.8921543901610691e-20  9.5319944271821782e-21  2.9722585622561625e-21  9.8596884338511830e-21  -3.5934397131173255e-20  -5.3977268415148672e-20  8.1599588262939834e-21  -1.9721768179599641e-20  -1.1635734265142989e-20  3.2724691681207835e-20  2.0259813938917011e-20  7.3820288936540208e-21  2.0456662074024736e-20  1.4606318783136241e-21  -6.0820063047961291e-25  4.8642212663378804e-22  -1.0848679052836368e-21  -1.5233600759650251e-22  -3.2076213473988385e-21  -4.3704457230626156e-21  6.8730293944062712e-21  4.8622656514468028e-21  -8.6005559059700926e-22  3.6539539212931876e-21  2.6681101773712511e-21  1.4441105557712846e-20  1.5269176118651038e-20  -3.7595270128825767e-21  1.5138557139091408e-21  6.6585440463537274e-21  9.9565476916018931e-22  -2.7135992425758700e-22  -2.8564177414518351e-22  -5.7283496225533002e-22  4.5248251094796188e-22  3.4839104647202404e-22  -1.0281085116277468e-22  1.2824554869122549e-22  -9.5227130897824827e-23  -5.8838601880279893e-22  3.1175721471551811e-22  2.1272003989791519e-21  2.3753340968096670e-21  -3.6664757270566965e-21  -3.3113063139375970e-21  4.6414922603588243e-21  2.6805567622989497e-21  -6.0655397214133807e-22  2.3555059630274064e-21  -9.0333658658757411e-22  -2.8177694718342514e-21  1.2203962641838967e-21  1.6785173983558604e-21  4.8578413396054551e-21  3.2989317737302972e-21  -3.0535287089375636e-22  -1.0287053176233325e-21  -1.0275752368890536e-22  -2.4942651189424400e-22  1.5746568247841934e-22  -7.0202282871911045e-23  5.4003350926887443e-24  2.6175992740781161e-21  4.5055373918979747e-21  1.8652526408671912e-21  6.4978874856890822e-22  3.8462232516597503e-21  6.6167976887402326e-21  -3.1715859851463378e-21  -7.3899731645484827e-21  2.0567999165989403e-21  5.1073434681883713e-21  1.9612830689877035e-21  3.6561277332649031e-23  4.5236979617906653e-22  2.4676530948107758e-22  6.9695798960511571e-23  5.2148340691186119e-22  1.5012505405334411e-21  -6.8763292780830359e-22  -1.9556570936977251e-21  7.1796768925640590e-23  3.4652185742413771e-22  3.2788444612782751e-23  4.9535306343195229e-22  7.2820246963481090e-22  2.6827672313478433e-21  3.9474942108024471e-21  2.7133787435322260e-21  -7.0695104176059863e-22  -2.1888054049743967e-21  3.4611036913749962e-23  2.4953309923038644e-21  1.7362744089424058e-21  -5.6038309491160883e-21  -6.1603347358040097e-21  -8.2441345705883628e-22  -1.8403042936851995e-21  -1.0740744614359182e-21  3.8709240037087748e-21  4.0173146138426854e-21  1.7922195622758874e-21  2.0453307292127085e-21  8.7526729569608791e-22  2.1647886588949571e-23  8.8594251377485974e-23  2.4165238645841475e-04  2.3983075073507893e-04  2.3816531482695482e-04  2.3727302138583335e-04  2.3718222296650925e-04  2.3669794228997691e-04  2.3638722227216667e-04  2.3599419811962797e-04  2.3568117683440553e-04  2.3496375824881392e-04  2.3417267109456517e-04  2.3380566960660125e-04  2.3434918878616564e-04  2.3538729069749672e-04  2.3638786491649640e-04  2.3919028885836628e-04  2.4128500556645628e-04  2.4350543192659405e-04  2.4645210428543351e-04  2.4927543096192622e-04  2.5242360836461540e-04  2.5472450380187436e-04  2.5641221857631701e-04  2.5766548418791965e-04  2.5804282971324190e-04  2.5809517052214433e-04  2.5800915174159462e-04  2.5759343581025537e-04  2.5639864663600203e-04  2.5491689804459875e-04  2.5298507572353059e-04  2.5119943407503158e-04  2.4998589837918527e-04  2.4884585889484710e-04  2.4814182524801707e-04  2.4798236223969820e-04  2.4792403828069947e-04  2.4864434923728082e-04  2.4992596273561276e-04  2.5147633083385639e-04  2.5312431440509156e-04  2.5448233222156037e-04  2.5512986081815058e-04  2.5536139727734867e-04  2.5509302223537280e-04  2.5453685138489127e-04  2.5435176923292605e-04  2.5479444932192345e-04  2.5528004198375435e-04  2.5696363832387328e-04  2.5856704171154179e-04  2.6030748659208790e-04  2.6255562519370750e-04  2.6480937882643557e-04  2.6629921727256225e-04  2.6756952365531361e-04  2.6837370175818262e-04  2.6890829638386959e-04  2.6838820689426755e-04  2.6742823153873177e-04  2.6592348160855202e-04  2.6377241521330526e-04  2.6109128355929212e-04  2.5776974625307304e-04  2.5426994599544864e-04  2.5086663131549834e-04  2.4799845424612724e-04  2.4539410850373303e-04  2.6657341383971140e-04  2.5521538614546742e-04  2.7425175926808893e-04  2.5764403431045331e-04  2.7282586809597242e-04  2.8404245983853008e-04  2.7285661915111078e-04  2.6969920832583069e-04  2.7403199091989263e-04  2.7684980424189115e-04  2.7530275938661696e-04  2.8414726084767132e-04  2.8810738696921444e-04  2.5653357351060357e-04  2.5128220253959151e-04  2.7949796586947915e-04  2.6037002661129173e-04  2.6964539530591799e-04  2.8741783824850765e-04  2.7901332793467827e-04  2.5943945221132148e-04  2.6891015400696313e-04  2.6313983469884782e-04  2.6869659176154029e-04  2.4250313118541326e-04  2.5157529870428302e-04  2.6283074795744845e-04  2.5440793194268178e-04  2.7004448950627145e-04  2.8107948245751041e-04  2.8644488148834338e-04  2.9131991716442092e-04  2.9790398359959953e-04  2.9993463137108185e-04  3.0808516854982442e-04  3.1083434449684296e-04  2.9171303800726300e-04  3.1914685723109386e-04  3.1880503182989654e-04  3.0353057297595427e-04  3.1170474795771540e-04  2.9643852592383714e-04  3.0192299659881892e-04  3.1548504391276042e-04  3.0478564983423402e-04  3.1498848114081495e-04  3.0383641237184867e-04  3.0899885378430313e-04  2.9249623829516274e-04  2.9756463497768339e-04  3.1424031928161100e-04  3.2399297208960770e-04  3.1996147230355158e-04  3.2641429504757055e-04  3.2214500582288945e-04  3.2605394787296873e-04  3.1916180263204719e-04  3.2294455597063545e-04  3.1397762519190530e-04  3.1694628035461005e-04  3.2554330132294909e-04  3.1605298781759876e-04  3.2326923680362852e-04  3.0656499917835957e-04  3.0418992447912477e-04  3.0687337642207346e-04  3.0619630550684639e-04  2.8865811396753724e-04  2.8003509135043724e-04  3.0265698188278720e-04  3.1208016596001793e-04  2.9113164593109179e-04  2.9060583783098649e-04  3.0970195968968152e-04  3.0801130806294583e-04  3.0246619427226075e-04  3.1524177913716121e-04  3.0236035078341485e-04  3.1412074623883270e-04  3.2495927379406190e-04  3.1918818527092987e-04  3.1092052190931856e-04  3.1152126929815375e-04  3.2439358836776198e-04  3.1371448759673283e-04  3.0265150981143105e-04  3.0233394539621705e-04  3.0889110339928609e-04  2.9388078115123939e-04  2.9033569584866311e-04  2.8408514798312158e-04  2.8473959022218585e-04  3.3071435900771409e-04  2.9449358302006419e-04  2.9764169249767424e-04  2.9034629946474838e-04  2.9658417210289765e-04  2.8769307555551264e-04  2.8894100559209934e-04  2.9563008194327239e-04  3.0219826355348833e-04  2.9080283771331565e-04  2.8448278442068717e-04  2.9198134746618486e-04  2.8892318987753905e-04  2.8046346379652381e-04  2.8083972557665248e-04  2.8674957601934099e-04  2.7567570488090957e-04  2.7100416828749536e-04  2.7157371814801702e-04  2.7808049123753242e-04  2.7131658155098788e-04  2.7957817796482170e-04  2.6369061005285477e-04  2.9138056638291522e-04  3.2985976874923219e-04  2.6676947250760328e-04  3.2446802502245038e-04  3.1096813199944735e-04  2.9726748173650397e-04  3.0810072260131787e-04  2.9577058868541074e-04  2.8558426430091039e-04  2.8292617721914915e-04  2.9057798424973351e-04  2.9290041198062623e-04  2.8733120707425492e-04  2.7200656497928871e-04  3.2565616259816823e-04  2.7747321838468098e-04  2.7495134501460494e-04  3.0598193765859593e-04  2.9845576882681503e-04  2.9215835472948422e-04  2.9832004705715605e-04  2.9438867887319017e-04  2.8533247127342156e-04  2.8208629717745633e-04  2.7946111872492751e-04  2.7002536808399641e-04  2.6892575959926255e-04  2.6141717772196459e-04  2.6314450560891621e-04  2.6928765204717466e-04  2.5924110495044195e-04  2.8581784492839066e-04  2.7574957799538711e-04  2.6701774282822041e-04  2.4906294738329544e-04  2.8155651388471687e-04  2.9464139334187768e-04  3.0295757836556499e-04  2.7558544113338276e-04  2.7818106778297098e-04  2.7880609923433466e-04  2.7025154589279207e-04  2.7533135825947457e-04  2.7715397751370142e-04  2.6932353312145331e-04  2.5559031550099581e-04  2.6864122508753815e-04  2.8755621287697279e-04  2.6932170678224579e-04  2.8105651488156638e-04  2.8590682124421195e-04  2.9585416903630889e-04  2.8697234264886108e-04  2.8115431966794276e-04  2.7427733292800848e-04  2.7971759705672195e-04  2.8069193954406181e-04  2.9411367013104531e-04  2.8586149757761750e-04  2.7477608407078377e-04  2.7433064557016589e-04  2.4212716649254910e-04  2.4969282233037348e-04  2.5974119669046884e-04  2.5358919121759907e-04  2.7522115793126461e-04  3.2081598194186073e-04  3.3359325545861767e-04  2.8760092866999745e-04  2.5759876393153695e-04  2.5324507321693103e-04  2.6288296595563501e-04  2.6171857626449687e-04  2.7722853703441365e-04  2.8951143886703126e-04  3.0107076091071645e-04  2.9694915448994007e-04  2.7756714878293253e-04  2.8248122050860645e-04  3.2323898289739639e-04  3.2634204214763453e-04  3.1889165478998180e-04  2.8415213987070283e-04  2.8128850244690476e-04  2.9815298626743197e-04  2.8196297395824573e-04  2.9708421812752134e-04  2.5473596283719742e-04  2.7198695329088205e-04  3.3145743337329109e-04  2.8176191337498394e-04  2.9884466635066783e-04  2.8705525830114001e-04  3.0322193318869554e-04  2.8311221944463480e-04  3.0595351790709539e-04  3.1859215830319366e-04  2.6985468037305600e-04  3.2964858066854340e-04  2.9973219893101899e-04  2.7027084744410743e-04  3.0036442583072118e-04  2.8997822759493377e-04  2.9772709716661451e-04  3.2367933543115914e-04  2.5573709633216433e-04  2.7750587934449429e-04  2.9858403343021244e-04  3.3334063955200164e-04  2.6748352916772331e-04  2.8315563551862042e-04  3.3297905802536545e-04  3.0368130578849591e-04  2.8925585542594734e-04  3.2977706524151533e-04  3.0849648762043135e-04  2.6818280029621927e-04  2.9136649646858314e-04  3.0338505069098535e-04  3.1436981499524555e-04  2.8651232285749692e-04  2.7104782283470750e-04  3.0955940137789945e-04  2.2657431060834634e-04  2.4045335357350547e-04  2.3314505193720045e-04  2.4642079016092298e-04  2.7382142918416487e-04  2.7657761956420709e-04  2.8011569414398345e-04  2.6190285746621560e-04  2.8867433425384302e-04  3.1479630013383597e-04  2.7199602485653880e-04  2.8045943737693506e-04  2.8569437832707943e-04  3.1691249041437049e-04  3.0246810607190106e-04  3.1706163707859582e-04  2.8318072909328884e-04  3.1454193229562600e-04  2.8844541129577914e-04  3.1209219940319966e-04  3.3104530050792293e-04  2.7665901415786591e-04  2.9908679843461091e-04  2.9141448057477766e-04  2.8919199691564081e-04  2.9234213672960752e-04  3.0903658307506116e-04  3.3225406608024748e-04  2.6531179907346853e-04  2.5590479729502085e-04  2.5392847298712505e-04  2.4735435012537447e-04  2.4021099894925730e-04  2.5346569473217215e-04  2.4914054739064097e-04  2.4416086872630779e-04  2.4029709311777040e-04  2.4561466161044076e-04  2.4444980977707633e-04  2.4102359869760461e-04  2.3344154346387390e-04  3.7481192989975891e-05  2.9584285653077940e-05  4.0111070795558227e-05  3.1935599837681836e-05  2.2522102543520492e-04  2.2853648325712065e-04  2.3765015805044513e-04  2.4047731032112877e-04  2.4224825092046106e-04  2.3701103277228223e-04  2.4396699361561549e-04  2.2384940900300294e-04  2.2516676974602460e-04  2.2497032590941597e-04  2.1539160709307446e-04  2.2188840108878621e-04  1.9983532747690612e-04  2.0417120591973581e-04  3.7907026362364441e-05  3.4142579989131442e-05  3.5723337912383537e-05  3.5804170863426277e-05  4.4428368754791272e-05  4.4558702688270224e-05  4.4897608193133958e-05  1.7958731958275334e-04  1.8647979256007668e-04  2.0196119928109641e-04  2.1006552306891731e-04  5.8448274961081214e-05  5.5428704480180827e-05  5.5264605908558378e-05  5.5657444842945194e-05  5.6654591452488118e-05  5.7654131260860560e-05  6.2412469553823840e-05  3.7148764781085578e-05  1.8209424917602847e-04  1.8989432283493071e-04  4.0939036752178289e-05  3.5443987599949960e-05  3.9501122662698663e-05  2.2688577799633019e-04  2.2060461971349504e-04  2.1074303467046479e-04  1.9985148690079626e-04  1.9033382080899491e-04  1.7723980629345018e-04  1.8846406747793158e-04  1.6591677516182403e-04  1.7712285853929133e-04  1.5034979229348091e-04  2.3282699351919679e-04  2.2527799537569207e-04  2.1652525733512024e-04  2.0507481003573130e-04  2.0891021107713716e-04  1.9597096046950895e-04  1.8224027130176013e-04  1.7135951549780750e-04  1.8294196828184993e-04  1.5529916572737414e-04  2.2458095817380681e-04  2.3506859573406376e-04  2.2955552640749910e-04  2.1811586829744472e-04  2.0829787062476147e-04  2.1418701201146269e-04  1.9300510297128604e-04  1.9645094249736371e-04  1.7378046829081222e-04  1.7531018010980121e-04  2.4358151424872640e-04  2.2401246404151089e-04  2.2729954564652412e-04  2.3850416876938720e-04  1.8496050089286545e-04  1.5580638179462069e-04  1.6547237076349592e-04  1.5141546637178644e-04  1.5126183134628820e-04  1.6482117695074925e-04  4.2962469085302346e-05  1.5049481818437015e-04  1.7809431365277409e-04  1.5648994013677336e-04  1.5685946046721074e-04  1.8188249146331478e-04  1.7497103033188704e-04  2.4436185250455416e-04  1.3432094590047535e-04  1.3073550337903034e-04  2.8072302996295912e-05  2.7106633799234349e-05  2.7354665090203918e-05  1.2110571791874045e-04  1.2848599778769937e-04  1.5723279389706236e-04  1.6471732385503314e-04  1.4531215964390154e-04  1.6779611847700835e-04  1.5142871400300115e-04  1.7432433992756261e-04  1.4165108809964982e-04  1.7068706258949415e-04  1.4536321494421057e-04  1.7853072088607039e-04  1.4721125588122852e-04  1.7650967177430867e-04  1.3777472279837935e-04  1.6648187269689878e-04  1.4038013993466269e-04  1.6937233151810785e-04  1.4093716148031872e-04  1.6933672184803650e-04  1.3993076041971526e-04  1.6881871042614136e-04  1.3846785572725894e-04  1.6779500594511890e-04  1.3697475258876108e-04  1.6685945014474491e-04  1.3538663728283648e-04  1.6625325440238715e-04  1.4590112851571571e-04  1.7542552731349885e-04  1.4377067836725393e-04  1.7414662405690185e-04  1.4227140906343446e-04  1.7341100325290982e-04  1.4064048638821761e-04  1.7255801063284585e-04  1.2507279642864048e-04  1.2390214888693567e-04  2.1736599406551230e-04  2.2540737898074322e-04  1.2979979251906773e-04  1.2726577680534606e-04  1.3614981629410055e-04  1.6602531276935825e-04  1.3575989225228096e-04  1.6563595650252014e-04  1.3459445809485933e-04  1.4129237816782721e-04  1.7242689202869851e-04  1.4078033163371698e-04  1.7240222420180138e-04  1.4124515770188421e-04  1.6318813273419471e-04  1.3452908968788715e-04  1.3878049296530827e-04  2.0138578127747804e-04  2.0081569562889487e-04  1.9346179334232713e-04  1.9298015376195977e-04  2.0404127230380566e-04  1.0863035912256882e-04  1.9406624215091342e-04  1.0576889428813730e-04  2.0297759317426607e-04  1.0467266736758001e-04  1.9550333958345990e-04  1.3338278898073288e-04  1.1187630812488696e-04  9.8542741184298567e-05  1.0892411741336246e-04  1.4048181589027979e-04  1.1370136958222730e-04  2.0365679864907784e-04  1.0085016869013764e-04  1.9574478954000827e-04  1.2854360626634180e-04  1.2132194294008562e-04  1.3135777404677868e-04  1.7334898685183981e-04  9.4102356892722218e-05  1.1656884023812846e-04  6.7314383620881548e-05  1.9635374991897593e-04  1.9916274287215127e-05  2.1669053908064426e-04  2.0238713257618299e-04  1.1289408099121441e-04  1.3481759456895529e-04  1.7049195266148829e-04  1.0826283608839798e-04  2.1752399326208799e-04  2.2368274578713125e-04  2.2308137820491379e-04  2.0362244504611184e-04  2.0812767788410555e-04  1.8455401469430211e-04  1.8829477001056140e-04  1.5999496366367522e-04  1.6280185136167594e-04  1.6201890086583402e-04  1.9601574993487889e-04  1.6565291614095310e-04  1.9538695639885142e-04  1.6733989710789897e-04  1.9683334904887573e-04  1.7011394264427755e-04  2.0047004232238001e-04  1.0921504523488567e-04  1.0471683371629329e-04  9.7066979637447086e-05  1.1960537504850553e-04  2.0041284157644755e-04  2.0049144720482288e-04  7.2153798585926688e-05  1.7905578286713650e-04  9.7610513158036025e-05  9.6763920860279816e-05  1.3806531470037133e-04  1.8483407929565346e-05  2.0293039431154346e-05  1.8053425679864467e-05  2.2003807584198697e-04  2.3050015750430042e-04  1.6857762354814166e-04  1.3724642285482862e-04  1.6869482604255963e-04  7.8067243518211506e-05  7.4954298572528844e-05  8.3854707078884512e-05  1.2861910317578398e-04  1.5449780022571303e-04  1.8602299482534752e-04  1.7989735002279345e-04  1.4045395214083985e-04  1.6407131002876894e-04  1.9371611211436684e-04  1.8549263726410983e-04  1.5068925688123551e-04  1.7035923482336987e-04  1.3542678189713177e-04  1.5825373028049373e-04  1.8820731354058986e-04  1.8033015500396046e-04  1.4689575742104415e-04  1.7347595870596230e-04  1.3629334415807295e-04  1.6041239492972393e-04  1.8958027158992192e-04  1.7980052701741271e-04  1.5011313491876689e-04  1.7490286738932199e-04  1.3846655301632494e-04  1.6323192815749201e-04  1.2352215864675406e-04  1.4096089362450009e-04  2.2796431977959822e-04  2.2426866038791277e-04  2.2612597969791994e-04  1.8470449364805781e-04  2.1125762312006226e-04  1.3182536180984130e-04  1.0204423314001184e-04  2.1911806412691588e-04  2.1741459318820207e-04  2.1691457001486212e-04  2.1842257108367356e-04  1.9761971304894523e-04  1.3509442651194340e-04  2.4081319292324830e-04  2.1627763943487583e-04  1.9163320958501918e-04  1.0114992187437880e-04  1.1909312363104844e-04  2.1888922627027384e-04  1.0262320078771523e-04  1.0214511382501520e-04  2.3160314525808061e-04  2.1766179974472893e-04  1.0298031438753474e-04  2.2171258678061557e-04  2.2151244286950839e-04  2.2132085584363511e-04  2.0437323808490822e-04  1.0659885015793946e-04  1.1065913262419880e-04  8.7577298380758339e-05  2.2154247975410236e-04  2.0713214894639272e-04  1.3473816034092429e-04  1.1673297358773210e-04  9.9239790153750714e-05  7.5415245916548256e-05  6.4810737946000853e-05  1.3141886726339270e-04  9.3233922704855386e-05  6.4918131004054953e-05  7.9301564575532895e-05  9.7067469797421096e-05  2.0264792969747154e-04  8.8178137803772186e-05  8.3296686447426133e-05  1.1431597145648201e-04  2.0245776557083271e-04  2.0961133672288805e-04  2.00509