<?xml version="1.0"?>
<VTKFile type="UnstructuredGrid"  version="0.1"  >
<UnstructuredGrid>
<Piece  NumberOfPoints="1242" NumberOfCells="2386">
<Points>
<DataArray  type="Float64"  NumberOfComponents="3"  format="ascii">0 0 0  0 1 0  1 1 0  1 0 0  1.1 -0.1 0  -0.1 -0.1 0  1.1 1.1 0  -0.1 1.1 0  0.5010789813209588 0.5057638383656013 0  0.6092890026405339 0.7234690638658324 0  0 0.9499999999997918 0  0 0.8999999999995836 0  0 0.8499999999996529 0  0 0.7999999999999998 0  0 0.7500000000003466 0  0 0.7000000000006934 0  0 0.6500000000010401 0  0 0.6000000000013869 0  0 0.5500000000017335 0  0 0.5000000000020587 0  0 0.4500000000018723 0  0 0.4000000000016644 0  0 0.3500000000014564 0  0 0.3000000000012483 0  0 0.2500000000010403 0  0 0.2000000000008322 0  0 0.1500000000006241 0  0 0.100000000000416 0  0 0.05000000000020799 0  0.04999999999989965 0 0  0.09999999999981467 0 0  0.1499999999997036 0 0  0.1999999999995579 0 0  0.2499999999994121 0 0  0.2999999999992664 0 0  0.3499999999991206 0 0  0.3999999999989749 0 0  0.4499999999988292 0 0  0.4999999999986943 0 0  0.5499999999988151 0 0  0.5999999999989468 0 0  0.6499999999990784 0 0  0.69999999999921 0 0  0.7499999999993417 0 0  0.7999999999994734 0 0  0.8499999999996051 0 0  0.8999999999997368 0 0  0.9499999999998684 0 0  1 0.04999999999989965 0  1 0.09999999999981467 0  1 0.1499999999997036 0  1 0.1999999999995579 0  1 0.2499999999994121 0  1 0.2999999999992664 0  1 0.3499999999991206 0  1 0.3999999999989749 0  1 0.4499999999988292 0  1 0.4999999999986943 0  1 0.5499999999988151 0  1 0.5999999999989468 0  1 0.6499999999990784 0  1 0.69999999999921 0  1 0.7499999999993417 0  1 0.7999999999994734 0  1 0.8499999999996051 0  1 0.8999999999997368 0  1 0.9499999999998684 0  0.9499999999997918 1 0  0.8999999999995836 1 0  0.8499999999996529 1 0  0.7999999999999998 1 0  0.7500000000003466 1 0  0.7000000000006934 1 0  0.6500000000010401 1 0  0.6000000000013869 1 0  0.5500000000017335 1 0  0.5000000000020587 1 0  0.4500000000018723 1 0  0.4000000000016644 1 0  0.3500000000014564 1 0  0.3000000000012483 1 0  0.2500000000010403 1 0  0.2000000000008322 1 0  0.1500000000006241 1 0  0.100000000000416 1 0  0.05000000000020799 1 0  -0.1 1.05000000000004 0  -0.1 1.000000000000079 0  -0.1 0.9500000000001624 0  -0.1 0.9000000000003032 0  -0.1 0.850000000000444 0  -0.1 0.8000000000005848 0  -0.1 0.7500000000007256 0  -0.1 0.7000000000008665 0  -0.1 0.6500000000010508 0  -0.1 0.6000000000012352 0  -0.1 0.5500000000014196 0  -0.1 0.500000000001539 0  -0.1 0.4500000000014195 0  -0.1 0.4000000000013 0  -0.1 0.3500000000011588 0  -0.1 0.3000000000010178 0  -0.1 0.2500000000008986 0  -0.1 0.2000000000007579 0  -0.1 0.1500000000006174 0  -0.1 0.1000000000005272 0  -0.1 0.05000000000040083 0  -0.1 2.671196597248127e-13 0  -0.1 -0.0499999999998666 0  -0.0500000000000906 -0.1 0  -1.730560139634463e-13 -0.1 0  0.04999999999975802 -0.1 0  0.09999999999961506 -0.1 0  0.1499999999994613 -0.1 0  0.199999999999302 -0.1 0  0.2499999999991446 -0.1 0  0.2999999999990088 -0.1 0  0.3499999999988296 -0.1 0  0.3999999999986936 -0.1 0  0.4499999999985143 -0.1 0  0.4999999999984002 -0.1 0  0.5499999999985247 -0.1 0  0.5999999999986493 -0.1 0  0.6499999999987955 -0.1 0  0.6999999999989417 -0.1 0  0.7499999999990659 -0.1 0  0.7999999999992116 -0.1 0  0.8499999999993573 -0.1 0  0.8999999999994526 -0.1 0  0.949999999999584 -0.1 0  0.9999999999997226 -0.1 0  1.049999999999861 -0.1 0  1.1 -0.0500000000000906 0  1.1 -1.730560139634463e-13 0  1.1 0.04999999999975802 0  1.1 0.09999999999961506 0  1.1 0.1499999999994613 0  1.1 0.199999999999302 0  1.1 0.2499999999991446 0  1.1 0.2999999999990088 0  1.1 0.3499999999988296 0  1.1 0.3999999999986936 0  1.1 0.4499999999985143 0  1.1 0.4999999999984002 0  1.1 0.5499999999985247 0  1.1 0.5999999999986493 0  1.1 0.6499999999987955 0  1.1 0.6999999999989417 0  1.1 0.7499999999990659 0  1.1 0.7999999999992116 0  1.1 0.8499999999993573 0  1.1 0.8999999999994526 0  1.1 0.949999999999584 0  1.1 0.9999999999997226 0  1.1 1.049999999999861 0  1.05000000000004 1.1 0  1.000000000000079 1.1 0  0.9500000000001624 1.1 0  0.9000000000003032 1.1 0  0.850000000000444 1.1 0  0.8000000000005848 1.1 0  0.7500000000007256 1.1 0  0.7000000000008665 1.1 0  0.6500000000010508 1.1 0  0.6000000000012352 1.1 0  0.5500000000014196 1.1 0  0.500000000001539 1.1 0  0.4500000000014195 1.1 0  0.4000000000013 1.1 0  0.3500000000011588 1.1 0  0.3000000000010178 1.1 0  0.2500000000008986 1.1 0  0.2000000000007579 1.1 0  0.1500000000006174 1.1 0  0.1000000000005272 1.1 0  0.05000000000040083 1.1 0  2.671196597248127e-13 1.1 0  -0.0499999999998666 1.1 0  0.6337854391888407 0.7155764765648254 0  0.6571208316751468 0.7044815854567706 0  0.6790409653058289 0.690566201887964 0  0.6979759566129512 0.6727072562190878 0  0.7135937476639451 0.6518944236260004 0  0.7247520564697943 0.6285004979446249 0  0.732758868254702 0.6039323618029476 0  0.7392294877329368 0.5790234559103746 0  0.7433117571560031 0.5536863773351767 0  0.7449549017666786 0.5281434235509384 0  0.7449941074405836 0.5025967860444255 0  0.742913836750028 0.4771604061879818 0  0.7383103157327762 0.4520994697527791 0  0.7318651350704538 0.4274963581969632 0  0.7245373426751625 0.4031643978342231 0  0.7158957060470202 0.379213706469364 0  0.7052745020426459 0.3559960285559339 0  0.6923162688336 0.3338746510045177 0  0.6770002602468073 0.3131999157698804 0  0.6589083134410655 0.2948223871517685 0  0.6385031093241343 0.2790124562145641 0  0.6161494181641427 0.2660641325755353 0  0.592072404736974 0.2567556569105997 0  0.566772656542225 0.2518664094272956 0  0.5411320417727442 0.2506891000133643 0  0.5156906103758971 0.2529670514662141 0  0.4908314310229618 0.2580974851867667 0  0.4665280284193991 0.2645128502631094 0  0.4428678510550192 0.2725445770572897 0  0.4200158440967974 0.2825781476284987 0  0.3979843556044572 0.294234617791178 0  0.3770058095029125 0.3075716517100504 0  0.3566388279734199 0.3217495863534882 0  0.3366504708343468 0.3364907754733057 0  0.3172832311774129 0.3521785353365008 0  0.2992931867632715 0.3696148918041109 0  0.2824343201172751 0.3882797216046801 0  0.2667001826993222 0.4080453221470726 0  0.2521850931835736 0.4289029616422059 0  0.2391147452866901 0.45084144299586 0  0.2279156608709899 0.4739569070010193 0  0.2198227823192287 0.4984594835732454 0  0.2185839797945394 0.5244988579984203 0  0.2226124522889735 0.5502518483557621 0  0.2327986258897924 0.5741692925686381 0  0.246529647788148 0.5961600567587269 0  0.2630653126357739 0.6159500534483899 0  0.2811765156234792 0.634136409544598 0  0.3007066817045027 0.6505773500297768 0  0.321093783501806 0.6656556750410569 0  0.341944223535719 0.6799787569988559 0  0.363954746075854 0.6923447784359827 0  0.3868522813316604 0.7028607748215552 0  0.4103892909826185 0.7116664840501997 0  0.4344265759076162 0.7189140640673745 0  0.4590619562227128 0.7235752839523484 0  0.4838275763374734 0.7270517305747247 0  0.5087039416116057 0.7297326125287837 0  0.5337599287227918 0.7312780131136689 0  0.5589726143515477 0.7310002814063317 0  0.5841787259555653 0.7283304963095664 0  0.2641533373633475 0.4513904562295132 0  0.3056568506657498 0.6217708786999573 0  0.6580054509188039 0.6809401977181772 0  0.7155304993951713 0.5867648901926871 0  0.5725822224543435 0.7040931237608404 0  0.4982314234283323 0.7051916130324962 0  0.3039107114390299 0.3962894205258866 0  0.3596744598083724 0.347975881184735 0  0.4197659194686457 0.3078862085755839 0  0.3672162012682171 0.6644760111868111 0  0.6163947705167852 0.2907534887006611 0  0.5071651157365593 0.2757766388626725 0  0.6795395645931075 0.3556665335170179 0  0.7075423488541343 0.4207308306750316 0  0.4292961390740723 0.6913779867815212 0  0.7247813029453675 0.5166639884040753 0  0.2572134582608333 0.5738700001616223 0  0.2404018175618083 0.5128494654537145 0  0.462296360106223 0.2880353553341398 0  0.7196299471446471 0.4692881312807924 0  0.7001250218688246 0.6323194000979936 0  0.5545904640347079 0.2727624118262791 0  0.6139891031992367 0.6999782102288566 0  0.6534209784526772 0.3181213883669956 0  0.3793094013725585 0.3333354058566003 0  0.3827594534900528 0.3596095238187004 0  0.3609858434663722 0.3744807521131179 0  0.3842582804097306 0.3873718249587889 0  0.4068431765373758 0.3705958051010294 0  0.4057279896699629 0.3975496544190409 0  0.3861870106162987 0.4170925682241859 0  0.4336388458654308 0.3843456838785435 0  0.4200384316011304 0.4301908629048235 0  0.3864424764677507 0.4559354230527936 0  0.4617195395484752 0.4205964677590145 0  0.4769958735229032 0.3715725992481806 0  0.5061421448331109 0.4144401918275427 0  0.523051250344182 0.3668086497904774 0  0.5509674638136074 0.4072653700223335 0  0.5693807014733111 0.3600314153340944 0  0.5986735045496294 0.3972569836791505 0  0.5807802779663633 0.4410995265134062 0  0.631436957326984 0.4325865187936485 0  0.6107489592654308 0.4730583717027929 0  0.6502999224913714 0.4652245945702418 0  0.6425165562657692 0.5061726088365232 0  0.5971582969003194 0.5141470324696713 0  0.6314518374513092 0.5462834550311236 0  0.5850910538997244 0.5562766387345002 0  0.6191269909075107 0.5881489082522906 0  0.5715087625957957 0.5986703513942855 0  0.6018660090357739 0.6258457692067236 0  0.5672180828931408 0.6413981903137783 0  0.5362465609343097 0.6156988791269813 0  0.6360932576792842 0.6204659077622675 0  0.603193821588043 0.3658885818132385 0  0.3607738088418038 0.4353980119182035 0  0.3521207858433431 0.4700273920642526 0  0.3851568402036513 0.4965928038928299 0  0.3470671282908758 0.5135719898570977 0  0.3823400399912683 0.5369355077870596 0  0.3494639896961713 0.5535045328649377 0  0.3775845190039431 0.5801857406371174 0  0.3195747123573889 0.5362442091991078 0  0.41427035385671 0.5600358699603617 0  0.4098840893007515 0.6045223505523422 0  0.455167853692366 0.5794895080335491 0  0.4413876085511417 0.6223992856488327 0  0.321831877270415 0.454320946222617 0  0.5419508732272036 0.3411788165067801 0  0.658909885750
[...]
<PointData  Scalars="u"> 
<DataArray  type="Float64"  Name="u"  format="ascii">-6.1799720614032365e-18  -9.2289800780251025e-18  -2.1036427587874046e-17  -4.5745401872154663e-18  2.4167379154046082e-19  3.4815278379088842e-19  -1.1186295444022147e-19  5.1181823573479453e-19  1.4104028920758466e-01  -1.1113418243947050e-01  -2.6314767067173388e-18  1.2151047461651889e-17  -2.1446223318984358e-17  0.0000000000000000e+00  -2.5988779790727721e-18  -4.9082380176546594e-17  -5.0933229992330077e-18  1.6435481023823766e-17  -1.0693182324303311e-18  -1.3253596701297034e-17  3.0891604138589951e-17  -4.1139333572355664e-18  4.7802208665651705e-17  -1.9825353132334618e-18  -2.8350833314604369e-17  3.0492612022366901e-19  -8.0687537637080887e-18  3.3837870654559607e-18  7.8458796058090573e-18  -1.8612888584592896e-21  -4.2725512082033464e-17  -2.2391498286701263e-17  2.4608588329133600e-17  -2.6217438229898825e-17  -2.0170925352136575e-17  -4.5202195637644996e-17  -1.0149544605283280e-16  1.4876124034556386e-17  1.4826904500962568e-17  -6.2757596869850128e-17  -2.8868825413658653e-18  -6.2045580930607093e-17  -4.3291126946521813e-17  -1.3189105992220336e-17  -5.0292694130173574e-17  -2.9288810432514253e-18  -8.6577155594858014e-18  1.7800037943930692e-17  4.9911793630360589e-17  -1.1195167811251750e-16  -1.9307715109546596e-16  9.5908450617203093e-17  6.1238623964226525e-18  -7.2719382936223270e-17  -1.3293032200698069e-17  4.4655016198257617e-16  5.8992166778724163e-17  -2.1210899894848467e-16  1.6124848915474233e-16  -1.3820413036674841e-16  -3.5133436433806464e-18  -2.0549584141861515e-17  1.4419269229208276e-16  -1.1370647301820292e-16  -9.8504241882221441e-17  7.9495128341696380e-17  6.5144740796008623e-18  -6.7838816649092288e-17  -2.2983390235406823e-17  -3.3352461809639887e-17  1.1203347237969638e-16  1.4809177684167860e-16  -3.0809685200518847e-16  -3.0778834942079328e-17  -1.9153021288000107e-16  3.7067672874877513e-16  1.2884082521566408e-16  -1.9534552384016693e-16  1.9442489956651523e-16  -3.0150949628545556e-18  2.2605458826769149e-16  -1.3446524443465464e-16  -1.4010289031688150e-16  -2.0868866932246989e-16  -1.0827144766640318e-17  -1.5383954717793901e-17  -1.0074031341794271e-19  -1.2464418730423332e-18  1.1860066014188187e-19  2.8873867425641110e-19  -2.2979068144212189e-18  2.7181167239587113e-18  -2.7953811288633303e-18  -1.0778384583116656e-17  -3.2762864849747448e-19  2.3457869222646076e-18  -7.8188397607325420e-20  6.1096406277834848e-19  2.0417064485134091e-18  2.1820421047019842e-18  5.1673001864414103e-18  -2.4141684848344678e-18  -2.9536045033171924e-18  -2.0044926635033221e-19  -1.7611578163585188e-18  2.3258549642434256e-19  6.2989545535599565e-19  -4.1746214429591247e-19  -2.6257096199145550e-19  -2.8281042299962584e-19  -2.4289618995160805e-19  -1.1146866801198911e-18  -5.5327620836139169e-18  -1.6750545211330880e-18  -6.2208508570188587e-19  -4.6567052559965294e-18  -4.7835948596405998e-18  -7.6082247915265000e-18  -1.1878764705408345e-17  4.3476350973447596e-19  -8.4179120701174147e-19  -6.1804895719801496e-18  -3.6862516052510106e-18  -8.0297826527788412e-18  -5.6245546873775985e-18  -3.3793599303220931e-18  -5.6159158845094802e-18  -2.7284334639851904e-18  2.3078499952394528e-19  1.2015674270611920e-18  2.3645711206811910e-19  -4.5702095526643366e-19  5.0810576649391436e-20  -4.9300518446469942e-19  -3.2616399627506311e-18  -4.8786937710436963e-18  -4.7324744492466201e-18  -1.6988849843353736e-18  2.0753498068433505e-18  2.6132606618502335e-18  -1.9177134910091182e-18  -5.3340394081983878e-19  6.3288270170113208e-19  -2.4781364006528261e-18  -4.8001633366323417e-18  -4.0767497795403780e-18  -1.8346320535403945e-18  -1.7969055224647441e-18  -1.8686118382715819e-18  2.3110783599132308e-19  1.0963633865776061e-18  1.7324418236183268e-20  1.4905135686452641e-19  6.4368679750495807e-19  -1.0874183697726738e-19  1.8546647386769311e-19  1.9384675942485659e-19  -1.4777593610177096e-18  -3.1627986915775396e-18  -4.3421680426927402e-18  -1.7273586795222915e-18  1.9047285574292448e-18  -1.2783266785081938e-18  -4.5328342171553333e-18  -3.5348589585091199e-18  2.2815726839107495e-18  -3.0394628484364962e-18  -3.1756111180854015e-18  3.4555307608286704e-18  -1.1510071947139353e-18  -6.1673996159049827e-18  -4.6391104745436555e-18  -3.4361400542544244e-18  -3.4253860744943603e-18  6.3469066675113097e-20  1.7718513843141988e-18  -1.3172753973324279e-19  -6.3444553798219389e-19  -1.1514383414420740e-01  -1.1824083391150159e-01  -1.2006358983236179e-01  -1.1991228995011330e-01  -1.1756567610396679e-01  -1.1292557220659549e-01  -1.0771717014326537e-01  -1.0366363895121805e-01  -1.0028158017611824e-01  -9.7543311048500309e-02  -9.6707575665528164e-02  -9.6503444027116581e-02  -9.6923145614968786e-02  -9.8269033914363785e-02  -1.0061516861731691e-01  -1.0468821087642971e-01  -1.0866280456163668e-01  -1.1194390255839692e-01  -1.1445196788826442e-01  -1.1540974448028282e-01  -1.1515296997316601e-01  -1.1391480841032507e-01  -1.1169760228645631e-01  -1.0882512978897677e-01  -1.0592047804889063e-01  -1.0334114841827569e-01  -1.0131766355205639e-01  -1.0058283624062261e-01  -1.0059771946827711e-01  -1.0080535858201897e-01  -1.0104676210106668e-01  -1.0108266574048183e-01  -1.0135296037692984e-01  -1.0210546377355537e-01  -1.0289205387684391e-01  -1.0277676855003992e-01  -1.0220610401445024e-01  -1.0169767679848052e-01  -1.0144298266007717e-01  -1.0185535885528996e-01  -1.0290973715843951e-01  -1.0442717096323258e-01  -1.0533224934122504e-01  -1.0650800763735453e-01  -1.0737680884713260e-01  -1.0797203971544786e-01  -1.0795804434667766e-01  -1.0775262414505683e-01  -1.0707940366688325e-01  -1.0617121504693716e-01  -1.0578309712302261e-01  -1.0470852340293331e-01  -1.0308020404862261e-01  -1.0149637127640149e-01  -1.0009075792824318e-01  -9.8303403299223296e-02  -9.7673956550238653e-02  -9.8564309468699041e-02  -1.0072024660967563e-01  -1.0377968472293810e-01  -1.0742672396367978e-01  -4.6557125764632702e-02  -4.3005534865307761e-02  -6.4989298626170061e-02  -4.9321277916288229e-02  -4.2474784560002109e-02  -3.4440291514665405e-02  -4.1408674923825828e-02  -3.5436839099133317e-02  -3.7677443935870462e-02  -3.6550253650227675e-02  -5.8779690294083101e-02  -4.6381566073723499e-02  -5.0376894887338639e-02  -3.9981277599370459e-02  -3.4048708669762437e-02  -4.1216003589850787e-02  -5.6587952568213987e-02  -5.8046699295984390e-02  -4.1517461444882990e-02  -3.8155737252434090e-02  -6.0493019179700472e-02  -5.2973945545567558e-02  -5.6198318359053319e-02  -5.8569784690709323e-02  -3.5634061495037853e-02  -7.9694986036693615e-04  -3.9974059371124153e-03  3.2402005199370566e-02  3.2558165665734329e-02  6.1127323918080942e-02  6.3182656909917048e-02  6.7494824041752485e-02  9.6189077658137431e-02  8.6876792954303964e-02  1.0878089152514067e-01  7.2778617159285713e-02  1.1194298344398353e-01  7.1463273724424334e-02  9.9423336892343075e-02  5.2286933254320746e-02  6.7553274465856586e-02  1.0455576913212382e-01  6.1654562969991604e-02  9.3524244975808496e-02  5.3482824997609035e-02  6.7153483364368646e-02  1.0556287915767414e-01  7.0224616292479822e-02  1.0189417668882123e-01  6.0231134173407870e-02  8.2733373244914185e-02  4.2064217803772716e-02  4.3824944348011582e-02  8.0071966838538677e-02  1.8779030677837840e-02  3.6571007662997305e-02  5.3775230564860881e-02  6.3604335415434615e-02  9.6245025203585785e-02  6.4135381784390835e-02  8.9169199637729082e-02  5.6087874698674892e-02  6.3926522697800178e-02  3.3024798435444154e-02  1.0027526906131745e-01  6.6219425613005894e-02  1.0630962748375689e-01  6.3848704457615521e-02  2.3490242022520608e-02  3.9878148535990511e-02  4.4369967211942161e-02  1.2200136376805634e-02  5.2892268767140045e-02  2.4408283324424965e-02  1.0804991069013713e-02  4.1833993867612093e-02  5.7900084273155130e-03  -2.7933109169552277e-04  7.3653451538241389e-03  -1.7522797760726797e-02  -1.0053164523787277e-02  2.8010614945220148e-02  -6.3336638217609976e-03  4.3040377560579152e-03  -2.0087230153042576e-02  -2.3537736539289377e-02  8.6290741750180838e-03  6.9171513131014453e-02  1.0524242227113437e-01  2.8483403918955538e-02  1.6047621325196094e-02  -1.1034849911520941e-02  -6.2919541060265007e-03  2.1939363499637956e-02  9.8968084237702567e-03  3.2298448415902944e-02  -2.7540274896206019e-03  2.1745035510990103e-05  1.4941992672371602e-02  1.1613873851697740e-01  -2.8221868430879600e-02  4.8552856990757981e-03  3.0504544956889902e-02  4.6495257096650276e-02  5.0680967033426630e-03  5.7564476493798134e-03  2.8594954798537794e-02  -1.1892387670231785e-03  -6.8114654071132780e-03  1.0913357055948381e-03  -9.8315746167292190e-03  -1.3590827511622610e-02  2.4822979596824828e-02  5.4877083203981472e-03  2.6881282485386935e-02  4.8681067933911155e-03  2.7583766315163915e-02  -1.0542176138170690e-02  3.9113200053777261e-02  -2.9816174215478383e-02  -1.3559990915969973e-02  -2.7957442877470168e-02  -2.5662438097042587e-03  1.2458052346542846e-01  1.2862495621388939e-01  -3.7864194601139468e-02  -3.6054646510048444e-02  -4.3247586770901986e-02  1.2910881269146876e-01  -4.3666459120736106e-02  2.1534950673964836e-02  -7.9318051025634960e-03  -4.5878187011029713e-02  -3.8859625713814072e-02  -3.6536471379268097e-02  -3.8378140749879233e-02  -4.6327754914619802e-02  -4.2869446302587343e-02  4.8691286932495491e-02  -2.7315082055105334e-02  -2.8545957589453767e-02  -3.9848213002172179e-02  -5.7016554237037491e-03  -4.4090039387030856e-02  -4.7197019753496251e-02  -4.3714290000859829e-02  -1.8257773176734136e-03  -4.9663680682286153e-02  -4.2245505077447731e-02  -1.2198930018192014e-02  -3.7860323090807627e-02  -3.8951036774216831e-02  -9.6443449000224255e-03  -4.5967083961632384e-02  -5.5339333500913974e-02  -7.7370694239697760e-03  1.3229416940412680e-01  -5.5587964420109694e-02  1.1371146799641560e-01  -5.9506108355617496e-02  -4.8968005751918280e-02  -2.5192089326946880e-02  -1.3854934801986228e-02  -6.0395191040598512e-02  -5.5139748791119804e-02  -2.9617176270948387e-02  -5.9937630582332382e-02  -1.1270129088840380e-02  -6.1762719848465195e-02  4.5093054238783410e-02  1.2666891878808076e-01  1.1657189650769255e-01  -5.5337096784855615e-03  -1.2451967035904151e-02  -1.8549857864248124e-02  -6.0572490040793618e-02  -3.3295532497005113e-02  -1.8532997044778784e-02  -4.1524011868426837e-02  -3.5093364430128907e-02  -6.6926440036010434e-02  -3.5092528231451696e-02  -4.1638101878773447e-02  3.0449793599874275e-02  -4.5781313520317215e-03  -4.7453889363911504e-02  -5.6386825691923603e-02  -3.3547783578781715e-02  -4.3621549102812941e-02  -5.4813032371628143e-02  -5.4271296269920388e-02  1.5162930909702508e-02  -1.7227587083826896e-02  2.1036158394136466e-02  -6.9407460209886737e-02  -3.2141451318893462e-02  -1.1767464755760246e-02  1.3442937177384134e-01  -1.4121672495882399e-02  -1.9273193786336441e-02  -3.2425396512659591e-02  3.1503255959840548e-02  -9.2088827686900611e-03  -1.0904564862903667e-02  -2.2078217399332345e-03  1.2371653637220014e-03  -1.6300842442170945e-02  3.1759331018738207e-02  -3.3359469386239272e-02  -1.5173511535551586e-02  1.5692825127494231e-02  -2.0893350959395412e-02  7.0051241379651043e-03  3.2506699952820968e-02  8.4203572910860308e-02  1.7957109740862710e-02  -2.6673321096146521e-02  1.2092952254777587e-02  3.2390140421499639e-02  1.2502995871092404e-02  -2.1289877088310902e-02  1.3201166486637397e-01  3.4887804345175695e-02  3.0663152614395246e-02  2.8988903778131968e-02  -2.9196141356793423e-02  7.8764746525181555e-03  1.3463910878996104e-02  1.2130003141886336e-01  -3.1496135466121955e-02  -2.0431775238901786e-02  -7.5068534868400075e-03  3.2059375984917600e-02  3.1705475142299495e-02  -4.4876518185841131e-02  3.4428605090602880e-02  1.7682749028347659e-02  1.8272086789740398e-02  -7.8414984598921805e-03  -1.7716258309197003e-02  -3.5110437354227336e-02  4.2664761034887713e-02  2.2870631849833817e-02  -5.3219013983441359e-02  3.1307808618118479e-02  -6.6271684394216254e-02  -1.4059704340860879e-01  -1.3925941320062338e-01  -1.4307232966919253e-01  -1.5421951575862886e-01  -1.4880246837643019e-01  -1.4098519490482089e-01  -1.3775421616350311e-01  -1.5029598518350715e-01  -1.4204650480952044e-01  -1.4851964832835521e-01  -1.3544622896492065e-01  -1.4069526499810864e-01  -1.3641778297428617e-01  -1.4723942559819961e-01  -1.3909623183437750e-01  -5.5738325297377850e-02  -1.3645853124380999e-01  -5.3409664911241418e-02  -6.8002191850047605e-02  -1.3223683217946208e-01  -6.0744714291887283e-02  -1.3587103995614194e-01  -6.0215146507702391e-02  -5.8291901017505088e-02  -5.9340767621245391e-02  -1.4212657387774855e-01  -1.3669686225576841e-01  -6.4801078872236961e-02  -1.3308468034182261e-01  -1.3086963338576382e-01  -5.3473736949356310e-02  -1.3245174414961666e-01  -6.2965290141630270e-02  -6.6127031855763310e-02  -1.3463749468893796e-01  -6.3146676783908853e-02  -6.0039415388844962e-02  -7.1884842839616395e-02  -5.7468909281226332e-02  -6.7170450008327401e-02  -6.4041886818789653e-02  -5.5083215340981533e-02  -6.1827782655561811e-02  -6.3297651317354958e-02  -5.1705382271870361e-02  -4.5212974583304290e-02  -5.0253930148315813e-02  -4.9812568410012484e-02  -6.3025903492461538e-02  -5.4633881979169303e-02  -4.9701831118332235e-02  -5.5055590222341529e-02  -5.3914896695521838e-02  -1.3527422312968301e-01  -1.3965253966052238e-01  -1.3775064513032859e-01  -1.4034274919871262e-01  -1.4422080165272017e-01  -1.3728337975171756e-01  -1.4087313444873542e-01  -1.4832884480906061e-01  -1.3702617973147244e-01  -1.4768213846114467e-01  -1.5670489049686878e-01  -1.5836285734273248e-01  -1.6537859428268972e-01  -1.6809950679872135e-01  -1.7377180245334270e-01  -1.7515222808463013e-01  -1.8003266390772948e-01  -1.7895377764280387e-01  -1.8293643615626884e-01  -1.7785281720731444e-01  -1.8089321919163154e-01  -1.6923916839949493e-01  -1.8185283431928193e-01  -1.7986052022719021e-01  -1.7250062672224295e-01  -1.7151416901223268e-01  -1.7564528042475508e-01  -1.6859940843844876e-01  -1.5592769269698786e-01  -1.6997446284510095e-01  -1.6504572006720822e-01  -1.6353348275134139e-01  -1.6144335596663845e-01  -1.5065749357817723e-01  -1.6366860367975591e-01  -1.6152031837550521e-01  -1.5894359477278502e-01  -1.5850214418069752e-01  -1.5054968556146547e-01  -1.4926622604095102e-01  -1.5691967436507018e-01  -1.4943185574568144e-01  -1.5764000041123824e-01  -1.5131012780751363e-01  -1.5919079128052213e-01  -1.5374063926342230e-01  -1.6325585376194610e-01  -1.5743693248365787e-01  -1.6809999184127200e-01  -1.6105373234697196e-01  -1.7197451796119967e-01  -1.6360915270470378e-01  -1.7572014443104869e-01  -1.6439281954779653e-01  -1.7642118098226262e-01  -1.6248436193388424e-01  -1.7244981814745788e-01  -1.8110820093565730e-01  -1.7550589568082997e-01  -1.8044501237195537e-01  -1.7323549786907672e-01  -1.7612096166472160e-01  -1.6679929849146694e-01  -1.6936808212751217e-01  -1.6337175024579145e-01  -1.5765685590164560e-01  -1.6235634895555670e-01  -1.4369046513239336e-01  -1.4721667052023477e-01  -1.7616402244189516e-01  -1.2992623077367152e-01  -1.8051982169037759e-01  -1.6496560963140067e-01  -1.5485519066779865e-01  -1.3812605410779680e-01  -1.7334572824513514e-01  -1.3399819409462704e-01  -1.6132825882486604e-01  -1.4792037798663621e-01  -1.5306018479803846e-01  -1.5783926711575141e-01  -1.5292258766155636e-01  -1.4424593037030969e-01  -1.4813663200386626e-01  -1.2350272402067237e-01  -1.5596661481915261e-01  -1.7166174550944049e-01  -1.3281543867838297e-01  -1.3426605439195577e-01  -1.4301620466037815e-01  -1.4790003535898524e-01  -1.4829417342778589e-01  -1.3792218040779325e-01  -1.4744923120636524e-01  -1.3097514728840304e-01  -1.4533546099775382e-01  -1.5351943690318076e-01  -1.5582227129325202e-01  -1.5709539448418935e-01  -1.6332839973852370e-01  -1.5581469432554515e-01  -1.6667345042435885e-01  -1.5232507457799468e-01  -1.6553174757682204e-01  -1.7420380479178241e-01  -1.7434925393441317e-01  -1.7863079806614562e-01  -1.7903949088570853e-01  -1.6861459878354645e-01  -1.7153762192633504e-01  -1.7885307147962826e-01  -1.6819227842461706e-01  -1.7379489144700550e-01  -1.5550278249485891e-01  -1.7839466535527942e-01  -1.7347614315730567e-01  -1.6391714508773844e-01  -1.6482752593836433e-01  -1.4926171704468552e-01  -1.5281681323161728e-01  -1.6222803884497664e-01  -1.5297054538938878e-01  -1.7214201170016977e-01  -1.7341341145403416e-01  -1.4456797840286509e-01  -1.7230018196789665e-01  -1.5907432110591793e-01  -1.5818030424328938e-01  -1.5360659653208170e-01  -1.3938719170551367e-01  -1.4321578297420320e-01  -1.5176872143259013e-01  -1.4659926469681867e-01  -1.5142904830410853e-01  -1.5025305946061784e-01  -1.5243927371994731e-01  -1.5449101092450065e-01  -1.4298510474119713e-01  -1.5100265292157503e-01  -1.6104383956342028e-01  -1.5972389574810925e-01  -1.6724082797451373e-01  -1.6730513740390035e-01  -1.7348168689626473e-01  -1.7452131836774804e-01  -1.7955924062360387e-01  -1.8035882253975358e-01  -1.8428662946839217e-01  -1.8347562949279911e-01  -1.8631445908850330e-01  -1.8282226539714069e-01  -1.8427191890981870e-01  -1.7666320915653869e-01  -1.7658205757653164e-01  -1.7040071285467234e-01  -1.7972466447230692e-01  -1.7187302758113179e-01  -1.6716739406785794e-01  -1.7451769535476372e-01  -1.6119251088788861e-01  -1.5633128572739263e-01  -1.6429295621708359e-01  -1.5976190844280289e-01  -1.4985486801732281e-01  -1.4968054412305207e-01  -1.5566183514943466e-01  -1.4257588450454933e-01  -1.5525627386857185e-01  -1.3616463073579654e-01  -1.6538795658438527e-01  -1.4771365672967660e-01  -1.3614912104381083e-01  -1.4138397244503564e-01  -1.3255916085380920e-01  -1.5059214239439744e-01  -1.4757583625975243e-01  -1.1841664065436762e-01  -1.3280594300668863e-01  -1.2983120599549400e-01  -1.4795442085110097e-01  -1.3050759656595981e-01  -1.3492178849586087e-01  -1.6311996675847537e-01  -1.2390846895210189e-01  -1.4080168863030312e-01  -1.3925386209103061e-01  -1.2860193258831057e-01  -1.2568875331432858e-01  -1.4011173789488104e-01  -1.5438310013908593e-01  -1.2833944668974784e-01  -1.3183400278120758e-01  -1.1889203960916735e-01  -1.4350669052065335e-01  -1.1780988858549775e-01  -1.3690308559153791e-01  -1.6013046122302482e-01  -1.6374029078967745e-01  -1.3122303690034073e-01  -1.4967555313523417e-01  -1.4772506103136862e-01  -1.4663735954755028e-01  -9.8069956618173984e-02  -1.6177061214877442e-01  -1.1261783952396742e-01  -9.9623339210621151e-02  -1.4920099791741806e-01  -1.3410726763848141e-01  -1.3651336174670459e-01  -1.1569993332709554e-01  -1.4475508122791808e-01  -1.4255945489448865e-01  -1.0777849547728482e-01  -1.3357260071828886e-01  -1.5082809796156432e-01  -1.5317000415975177e-01  -1.4812969835302528e-01  -1.2845961211039419e-01  -1.5634860258344108e-01  -1.5394805151117855e-01  -1.4094612068740350e-01  -1.5343213993315297e-01  -9.3585537490361248e-02  -1.0713174363422963e-01  -1.5285179053383668e-01  -1.6158245893790790e-01  -1.6343599965673355e-01  -1.5800446313543967e-01  -1.5294245308894999e-01  -1.0977553933253387e-01  -1.3194526830470141e-01  -1.4791818081510172e-01  -1.5149470868466081e-01  -1.4530585674575952e-01  -1.4276755797535751e-01  -1.4087558501706018e-01  -1.3009125104865493e-01  -1.5424897240258167e-01  -1.2276965268192777e-01  -1.3969210370519961e-01  -1.5289036018914373e-01  -1.5930697226906412e-01  -1.2618715792536811e-01  -1.5628758221747249e-01  -1.6603938436167412e-01  -9.3736679571392145e-02  -9.0839430487527531e-02  -5.1289757517270183e-02  -1.4030775030840070e-01  -1.3929614705399065e-01  -1.0853240025838987e-01  -1.3856954986913217e-01  -1.4966218056059635e-01  -1.7365014952882316e-01  -1.6461770459264705e-01  -1.3428425324965468e-01  -1.4844535603986145e-01  -1.4785534299773778e-01  -1.5706695439056576e-01  -1.5484186168216854e-01  -1.6402171885951949e-01  -1.6599826401606838e-01  -1.4651458683171362e-01  -1.5363289679450989e-01  -1.0324512657101949e-01  -1.2776756200731396e-01 