<?xml version="1.0"?>
<VTKFile type="UnstructuredGrid"  version="0.1"  >
<UnstructuredGrid>
<Piece  NumberOfPoints="1078" NumberOfCells="2058">
<Points>
<DataArray  type="Float64"  NumberOfComponents="3"  format="ascii">0 0 0  0 1 0  1 1 0  1 0 0  1.1 -0.1 0  -0.1 -0.1 0  1.1 1.1 0  -0.1 1.1 0  0.5442551206348247 0.5989060005389987 0  0 0.9499999999997918 0  0 0.8999999999995836 0  0 0.8499999999996529 0  0 0.7999999999999998 0  0 0.7500000000003466 0  0 0.7000000000006934 0  0 0.6500000000010401 0  0 0.6000000000013869 0  0 0.5500000000017335 0  0 0.5000000000020587 0  0 0.4500000000018723 0  0 0.4000000000016644 0  0 0.3500000000014564 0  0 0.3000000000012483 0  0 0.2500000000010403 0  0 0.2000000000008322 0  0 0.1500000000006241 0  0 0.100000000000416 0  0 0.05000000000020799 0  0.04999999999989965 0 0  0.09999999999981467 0 0  0.1499999999997036 0 0  0.1999999999995579 0 0  0.2499999999994121 0 0  0.2999999999992664 0 0  0.3499999999991206 0 0  0.3999999999989749 0 0  0.4499999999988292 0 0  0.4999999999986943 0 0  0.5499999999988151 0 0  0.5999999999989468 0 0  0.6499999999990784 0 0  0.69999999999921 0 0  0.7499999999993417 0 0  0.7999999999994734 0 0  0.8499999999996051 0 0  0.8999999999997368 0 0  0.9499999999998684 0 0  1 0.04999999999989965 0  1 0.09999999999981467 0  1 0.1499999999997036 0  1 0.1999999999995579 0  1 0.2499999999994121 0  1 0.2999999999992664 0  1 0.3499999999991206 0  1 0.3999999999989749 0  1 0.4499999999988292 0  1 0.4999999999986943 0  1 0.5499999999988151 0  1 0.5999999999989468 0  1 0.6499999999990784 0  1 0.69999999999921 0  1 0.7499999999993417 0  1 0.7999999999994734 0  1 0.8499999999996051 0  1 0.8999999999997368 0  1 0.9499999999998684 0  0.9499999999997918 1 0  0.8999999999995836 1 0  0.8499999999996529 1 0  0.7999999999999998 1 0  0.7500000000003466 1 0  0.7000000000006934 1 0  0.6500000000010401 1 0  0.6000000000013869 1 0  0.5500000000017335 1 0  0.5000000000020587 1 0  0.4500000000018723 1 0  0.4000000000016644 1 0  0.3500000000014564 1 0  0.3000000000012483 1 0  0.2500000000010403 1 0  0.2000000000008322 1 0  0.1500000000006241 1 0  0.100000000000416 1 0  0.05000000000020799 1 0  -0.1 1.05000000000004 0  -0.1 1.000000000000079 0  -0.1 0.9500000000001624 0  -0.1 0.9000000000003032 0  -0.1 0.850000000000444 0  -0.1 0.8000000000005848 0  -0.1 0.7500000000007256 0  -0.1 0.7000000000008665 0  -0.1 0.6500000000010508 0  -0.1 0.6000000000012352 0  -0.1 0.5500000000014196 0  -0.1 0.500000000001539 0  -0.1 0.4500000000014195 0  -0.1 0.4000000000013 0  -0.1 0.3500000000011588 0  -0.1 0.3000000000010178 0  -0.1 0.2500000000008986 0  -0.1 0.2000000000007579 0  -0.1 0.1500000000006174 0  -0.1 0.1000000000005272 0  -0.1 0.05000000000040083 0  -0.1 2.671196597248127e-13 0  -0.1 -0.0499999999998666 0  -0.0500000000000906 -0.1 0  -1.730560139634463e-13 -0.1 0  0.04999999999975802 -0.1 0  0.09999999999961506 -0.1 0  0.1499999999994613 -0.1 0  0.199999999999302 -0.1 0  0.2499999999991446 -0.1 0  0.2999999999990088 -0.1 0  0.3499999999988296 -0.1 0  0.3999999999986936 -0.1 0  0.4499999999985143 -0.1 0  0.4999999999984002 -0.1 0  0.5499999999985247 -0.1 0  0.5999999999986493 -0.1 0  0.6499999999987955 -0.1 0  0.6999999999989417 -0.1 0  0.7499999999990659 -0.1 0  0.7999999999992116 -0.1 0  0.8499999999993573 -0.1 0  0.8999999999994526 -0.1 0  0.949999999999584 -0.1 0  0.9999999999997226 -0.1 0  1.049999999999861 -0.1 0  1.1 -0.0500000000000906 0  1.1 -1.730560139634463e-13 0  1.1 0.04999999999975802 0  1.1 0.09999999999961506 0  1.1 0.1499999999994613 0  1.1 0.199999999999302 0  1.1 0.2499999999991446 0  1.1 0.2999999999990088 0  1.1 0.3499999999988296 0  1.1 0.3999999999986936 0  1.1 0.4499999999985143 0  1.1 0.4999999999984002 0  1.1 0.5499999999985247 0  1.1 0.5999999999986493 0  1.1 0.6499999999987955 0  1.1 0.6999999999989417 0  1.1 0.7499999999990659 0  1.1 0.7999999999992116 0  1.1 0.8499999999993573 0  1.1 0.8999999999994526 0  1.1 0.949999999999584 0  1.1 0.9999999999997226 0  1.1 1.049999999999861 0  1.05000000000004 1.1 0  1.000000000000079 1.1 0  0.9500000000001624 1.1 0  0.9000000000003032 1.1 0  0.850000000000444 1.1 0  0.8000000000005848 1.1 0  0.7500000000007256 1.1 0  0.7000000000008665 1.1 0  0.6500000000010508 1.1 0  0.6000000000012352 1.1 0  0.5500000000014196 1.1 0  0.500000000001539 1.1 0  0.4500000000014195 1.1 0  0.4000000000013 1.1 0  0.3500000000011588 1.1 0  0.3000000000010178 1.1 0  0.2500000000008986 1.1 0  0.2000000000007579 1.1 0  0.1500000000006174 1.1 0  0.1000000000005272 1.1 0  0.05000000000040083 1.1 0  2.671196597248127e-13 1.1 0  -0.0499999999998666 1.1 0  0.5761091336220041 0.5927347636407783 0  0.6040231677335598 0.5726525275755925 0  0.6145568643777966 0.5400457119087586 0  0.6165713818950386 0.507593347053621 0  0.6154677618168957 0.4756107935716095 0  0.6112846043735906 0.4439671660476915 0  0.6037789637802949 0.4125400435281386 0  0.5922561176925418 0.3815382848074693 0  0.574335528565795 0.3524926089264375 0  0.5465076192897833 0.3323313452475993 0  0.5146294011933322 0.3311956835038031 0  0.4853354164140595 0.3388432555879722 0  0.4579729333912712 0.349412342674416 0  0.4317104806773815 0.3616619113257853 0  0.4062806555697668 0.3749806862892195 0  0.3815097795437587 0.389107759997592 0  0.3572426045600309 0.4038746801183077 0  0.3335519421851207 0.4193560485234915 0  0.3104402201758791 0.4356164385482563 0  0.2880134428531246 0.4527807058973101 0  0.266823844827742 0.471459006219887 0  0.2490895362504555 0.4938057245583616 0  0.2545900961344845 0.5212711111155306 0  0.2808495465246452 0.5396052639309834 0  0.3088734757484133 0.553159037697504 0  0.3372884014878359 0.5643756668845497 0  0.3659350472445451 0.5739410847176925 0  0.3947843613686422 0.5820940582691488 0  0.4238668772813001 0.5888533837226866 0  0.4532694762814376 0.5941635522329557 0  0.4830242228784065 0.5979230810526566 0  0.513283889967029 0.5997957401518789 0  0.5853783607069831 0.4624715475904506 0  0.4331990529311056 0.3959899034585045 0  0.4751397870169485 0.5647283513728328 0  0.3602265858906801 0.4365788838001596 0  0.4113620283905944 0.5565573839043377 0  0.4864041605213398 0.3734374632463872 0  0.5314009641201846 0.5686812599521305 0  0.3550687305467856 0.5410668584628754 0  0.5709241438574656 0.4025968334033984 0  0.3155870034847114 0.468868077576239 0  0.5859721811189358 0.5241351743278547 0  0.5395721293175222 0.3580586027199474 0  0.3009195457582221 0.5193758210674706 0  0.274699595786451 0.5050297996188768 0  0.5816804793955236 0.5567611474435195 0  0.5526207536651785 0.5414217818850104 0  0.5605664751455716 0.50618122671674 0  0.530843844927352 0.517956123740769 0  0.5353873174813237 0.4857543016143629 0  0.5063149297182098 0.4964640142528213 0  0.5107565698470815 0.4633173606724745 0  0.4817176283035611 0.4740614100530013 0  0.485391582377223 0.4409423457508367 0  0.4568519217909374 0.4512486754669776 0  0.4531350739921977 0.4846126867690604 0  0.4286970557178744 0.4613092549404001 0  0.5144105517164406 0.4304469394227349 0  0.4252807490010228 0.494403245446246 0  0.4021965587067068 0.4713218950583972 0  0.3990828554229228 0.5028489311586269 0  0.4485363613121884 0.5183029982104743 0  0.4061775844700212 0.4391228453580542 0  0.3762216054031646 0.4807691461250116 0  0.4986585126363592 0.5325545460236606 0  0.4874730934123827 0.4079522612891078 0  0.513901290975291 0.3974542165132881 0  0.5386154571352106 0.4544376820494618 0  0.4772927860545654 0.507574245075312 0  0.5466212116115323 0.4228190906682451 0  0.4594003205087607 0.4184607267368839 0  0.4321268880645581 0.4288101014182251 0  0.4437127372428361 0.5549378425614522 0  0.3830992239514494 0.5497358605172448 0  0.5040547335275197 0.5679647800109759 0  0.3369554816772445 0.4513791888474021 0  0.3460032863328048 0.4843481080330987 0  0.4594617848884009 0.3845266847563916 0  0.3721271041714566 0.5149490031925755 0  0.3278265603252464 0.5321875086246337 0  0.2945079264757067 0.4863343806060954 0  0.4069540506888001 0.4077200965210331 0  0.5804129374162761 0.432244817530525 0  0.5878007057108849 0.4924709807125801 0  0.4225251396981099 0.5260297646441089 0  0.3199857622818215 0.5007966246338297 0  0.5640371737950811 0.3775491758769125 0  0.3827636326204881 0.4209676062226658 0  0.5138113052431265 0.3654079129847047 0  0.4701307135149648 0.5355211262067432 0  0.5421710667361 0.3900556661094141 0  0.5621233398225478 0.47601589148191 0  0.3442841662154706 0.5147084441633107 0  0.3818849506594957 0.4509861037122945 0  0.5226218348147847 0.5446020718869311 0  0.5565593283112915 0.5720627098176163 0  0.397709107429803 0.5300606599664232 0  0.5627038169260543 0.4496278511101172 0  0.3580844675828872 0.4612313916674594 0  0.6126715941795925 0.3911743364232153 0  0.6332980322313424 0.4910837504418117 0  0.3752800769201876 0.5947411119700022 0  0.5583367517140225 0.6127610971244821 0  0.9933256777497323 0.712179613008594 0  0.6538595559548998 0.9944083475544312 0  0.4638977930306188 0.6140482685610005 0  0.9976288529471539 0.5459139170656536 0  0.9865207603862907 0.2804779487093596 0  0.2921415508934805 0.9818204539177839 0  0.3583632901340259 0.3784014513712303 0  0.4347073669053467 0.3361739881759851 0  0.4495391984518568 0.9916815921526188 0  0.2893226872919992 0.5619838034255811 0  0.06845403976909845 0.7573501034051675 0  0.7118875565109672 0.05543296267180406 0  0.2855304117819115 0.4265681755484382 0  0.6258343144135406 0.5577831608120218 0  0.8103469881674822 0.9931757955632063 0  0.2515287612650561 0.06141500313492188 0  0.07292332263546157 0.2511534553956841 0  0.2444074280079515 0.4657881634344682 0  0.5655906072718297 0.0634406005659759 0  0.4108617836418129 0.06116788464882487 0  0.8528778083616834 0.04861636222478494 0  0.2327853552437663 0.5082295311604847 0  0.4946070211628632 0.3183667937001199 0  0.07058966884776267 0.6045617812568567 0  0.9952778923655099 0.8575840850451666 0  0.07049141130801932 0.3498062212850496 0  0.6173015751840736 0.5852090023065016 0  0.6396609010743249 0.5727043369652515 0  0.632
[...]
<PointData  Scalars="u"> 
<DataArray  type="Float64"  Name="u"  format="ascii">5.7497127557319614e-19  7.1385715786252614e-19  -2.3387247109989452e-18  -2.5005267286497777e-18  8.4511078317774691e-20  -5.8137648668562384e-21  1.1194012280566308e-19  -2.6946423117036773e-20  -4.2166801214047744e-01  -3.2492053103872616e-18  -9.4662778035085996e-19  8.3302305735449571e-18  2.6614513447664591e-18  9.8638857355537820e-18  -4.6612192161717444e-18  -1.2211060601431991e-18  -1.3791187856753231e-17  -2.7762879063160461e-17  3.2266128546982462e-18  -3.8815329419535473e-17  -1.3735448255605428e-17  3.7389677692018259e-17  9.0278060082404063e-18  -2.1986717356338341e-17  -2.6978032998249703e-17  1.8909514319319282e-17  5.2475081732639455e-18  -9.6295786757017669e-19  -3.2747270315807717e-18  -3.1201321202781612e-17  -5.3538188130879465e-18  -8.5065815622626631e-18  4.9021438949604915e-18  2.5762271109209146e-17  -5.7275774663996074e-17  -7.2327857187443178e-17  3.5908063110031510e-17  -2.8622887683401701e-18  4.4463421118585777e-18  -7.1275327813377959e-18  -4.1466260282900004e-17  -7.2232021410644037e-18  0.0000000000000000e+00  -3.9698101679313432e-17  -1.4174050161951796e-17  5.8785048157262454e-19  1.9712474969500102e-18  -9.2525936858605293e-18  -1.0228949650130093e-17  -2.8774394442077291e-18  -3.6066693090084361e-18  1.4733438471013839e-17  5.4896430608075643e-18  9.9075568796551876e-19  -5.5922776274066985e-18  -2.0487019780869728e-18  -2.7964712222804615e-19  -2.6548056217091705e-18  -5.2038005307147374e-18  -2.2605614237216867e-17  -2.2898505597652455e-17  -3.8841829813779857e-18  8.0952983315878005e-18  -3.2300593327748144e-18  -4.6656637341489365e-18  -2.2416113424704783e-18  3.2964683886220185e-18  1.6943389480459862e-19  -5.8317847568549981e-18  1.6676826878524179e-17  1.3036562962748557e-17  -1.4386501523260151e-17  -8.8317117869498217e-18  -1.5128578159806773e-17  -1.1420314891537636e-17  -4.3276755697706211e-18  9.1402436306392729e-18  1.2935329658284039e-18  -2.4278236976220247e-18  -1.0241628276898206e-17  -1.9300770456387012e-17  6.6225077687906832e-19  1.8170188817397178e-18  4.9103872524219857e-18  4.1308686605382240e-18  5.7323495207053233e-20  3.2637653439407306e-20  -3.8359276994027279e-19  -9.5430367463706329e-19  7.2592728325289920e-19  1.7189140659961602e-18  -1.3857377598299741e-18  -5.1084341845977067e-18  8.1088580599263723e-19  -2.7389480780106982e-18  -2.2924128400862045e-18  -4.1937624056153627e-20  -4.6600320056107798e-18  -1.7330111187085873e-18  4.8147635763430527e-18  -6.9395795266577902e-19  -3.2466903370353168e-18  -2.6898050296660496e-18  1.5443432349843227e-18  8.8296451211617053e-19  -3.0834312149160498e-19  8.0835660222688963e-20  1.6937324647642168e-20  -9.8226406099955238e-20  4.9516266895265656e-19  -1.1734487515181689e-18  -3.4564262463244562e-18  -1.1899143007946344e-18  -2.4580255388817332e-18  -4.0329896166746612e-21  1.1556423198305072e-18  -7.3699019607769808e-18  -8.3990541208741362e-18  2.1340003155618603e-18  8.7911644221320064e-19  -7.3402351996954600e-19  -1.3373212053299980e-18  -4.8481375257009225e-18  -1.1741713426327676e-18  -8.5523051026871750e-19  -4.4679469837738354e-18  -2.7043257121994653e-18  0.0000000000000000e+00  2.2649326711478751e-19  -2.2980499584325793e-19  -1.0179591496810691e-19  4.6757575157852450e-20  -4.0935948779681599e-19  -1.3023215650901964e-18  -1.1535187556100176e-18  -8.9300689003967197e-19  8.9899068061017871e-20  1.5435851632900185e-18  9.7229222635887381e-19  -1.5613642420591978e-19  -5.8885523194741506e-19  -4.1498809646058326e-19  7.1729305714095338e-21  1.0989555937186350e-19  -1.8551837369753724e-18  -3.3192813576749753e-18  -3.1161340523852243e-18  -6.2227195451762819e-19  9.1642215018517786e-19  -1.5981827262481886e-19  -7.4218756608664536e-19  -3.6184651242159390e-19  -2.2988245566613489e-19  -3.9910980743772179e-20  -1.0493104704213812e-19  -1.8130615113379963e-19  3.8469107427624356e-19  -2.1619189575679613e-19  -2.8105457280356099e-19  2.0918097133819421e-18  1.3126122281335721e-18  -1.2952447287011521e-18  -1.8147470281465955e-18  -1.8586952302915783e-18  -1.8088124643250587e-18  -3.2596343604332248e-19  9.8553071713250374e-19  2.7824200565905553e-19  -5.3652256806067952e-19  -1.6974357553781016e-18  -2.1849933200439968e-18  -4.2748270241146152e-19  2.5893937479046052e-19  7.0095679844986888e-19  5.5893199981852737e-19  1.8676091545181930e-19  -4.0669397205285331e-20  -4.2830670139128718e-01  -4.3008833294670346e-01  -4.2452585703302309e-01  -4.1789095833904233e-01  -4.1256973960665078e-01  -4.0847452305558229e-01  -4.0511236173759763e-01  -4.0211898713534411e-01  -3.9795503469567489e-01  -3.9115870751304488e-01  -3.8319475949152110e-01  -3.7629092604053349e-01  -3.7076793799161639e-01  -3.6624338824202984e-01  -3.6237183661750588e-01  -3.5897178515929884e-01  -3.5580685750289370e-01  -3.5278479643122551e-01  -3.4949043269546448e-01  -3.4653570931573008e-01  -3.4333127424195287e-01  -3.4094877626776710e-01  -3.4683010527463098e-01  -3.5767427495908688e-01  -3.6617838639260980e-01  -3.7357528814895302e-01  -3.8052930623717973e-01  -3.8701207071183874e-01  -3.9346993102749650e-01  -4.0001140371256055e-01  -4.0681982875507716e-01  -4.1392441580880679e-01  -3.6465850632372432e-01  -3.2405599246896372e-01  -3.5265340723705407e-01  -3.1899258335799680e-01  -3.4126082874311958e-01  -3.3730704661456656e-01  -3.7226175990309202e-01  -3.3400474656488854e-01  -3.6117395962102539e-01  -3.2214400378474339e-01  -3.7814720161311011e-01  -3.6038669679461943e-01  -3.3156148625691839e-01  -3.3009294333313660e-01  -3.9035678636904952e-01  -3.6480177997618507e-01  -3.5276005030728663e-01  -3.3759307208442874e-01  -3.2896072988893549e-01  -3.1659205235668714e-01  -3.1352509052918015e-01  -3.0516956251494093e-01  -3.0643285419644789e-01  -3.0058711725601939e-01  -3.0106943756075205e-01  -2.9920893321298625e-01  -3.1764565061655242e-01  -3.0216196841412996e-01  -3.0102352571632818e-01  -3.0724442279484615e-01  -3.1426833398030507e-01  -3.0776770922665342e-01  -3.0569509069109108e-01  -3.3286556310925364e-01  -3.1844551022290779e-01  -3.3129724442103536e-01  -3.2915846245342167e-01  -3.1263796765361396e-01  -3.3894358354209347e-01  -3.1115408081562679e-01  -3.0785746040494694e-01  -3.4062786926626309e-01  -3.3742478818919652e-01  -3.6203641254985558e-01  -3.1943541096877459e-01  -3.1377087432270301e-01  -3.2907853935171960e-01  -3.1619148662431085e-01  -3.3247130226413552e-01  -3.2636506282148670e-01  -3.2152141854349997e-01  -3.6206138807284988e-01  -3.6998709038508604e-01  -3.1868538205816743e-01  -3.2361253155332353e-01  -3.6468295692943437e-01  -3.2000538453933125e-01  -3.4793845250535543e-01  -3.2886550511585871e-01  -3.4798527834072601e-01  -3.4731518490833052e-01  -3.2187387816784507e-01  -3.0916390278065065e-01  -3.5104483945886722e-01  -3.8605732735684806e-01  -3.2291769732301312e-01  -3.4710399903354977e-01  -3.1224400644667955e-01  -4.2814330247652355e-01  -4.4055056469354442e-01  -4.1053474349188968e-01  -4.4843615324680325e-01  -1.7373622686315617e-02  -1.5171535828908461e-02  -4.3052694599063940e-01  -6.7532542853723015e-03  -3.3762132537753883e-02  -4.5577455630034833e-02  -3.8159935406475110e-01  -3.9190642240637091e-01  -2.3338242017774964e-02  -3.8393607473258828e-01  -1.4253081297083089e-01  -1.2778947538479532e-01  -3.6763116317639966e-01  -4.5006852718914725e-01  -1.4775466649689428e-02  -1.2753575571695749e-01  -1.4648949498864500e-01  -3.5537078067316596e-01  -1.5510245537904058e-01  -1.4651374124215813e-01  -8.3961761615827912e-02  -3.5364656341782053e-01  -3.9986652537122430e-01  -1.6336314719717274e-01  -8.9122513771858307e-03  -1.5639425005667815e-01  -4.5325113689239305e-01  -4.5319217380027510e-01  -4.5578363601368282e-01  -4.5542074761880985e-01  -4.5743062266634216e-01  -4.5528715673347009e-01  -4.5582742298519896e-01  -4.5074846590191880e-01  -4.4865717104891695e-01  -4.5361505505384753e-01  -4.4987492254681777e-01  -4.4298122183549404e-01  -4.4672123608979364e-01  -4.3816975011106152e-01  -4.3252143395870291e-01  -4.3382507280405103e-01  -4.1568471010204872e-01  -4.1262570696886980e-01  -4.1408540281504552e-01  -4.3130199319949747e-01  -4.0837148624653719e-01  -4.2564555230513640e-01  -3.9956292875610505e-01  -4.1744575399251654e-01  -3.8858831870394567e-01  -4.0749236142093304e-01  -3.9154729061397470e-01  -3.8658199831786727e-01  -3.7549641134197886e-01  -3.9523675799704999e-01  -3.7668685183542883e-01  -3.6081125892025168e-01  -3.5394263642265927e-01  -3.5995688062520076e-01  -3.8014833191968683e-01  -3.2396677636055943e-01  -3.1530542568525849e-01  -3.3864510952273480e-01  -4.0880514767687559e-01  -3.9404561040598651e-01  -3.6235961898559033e-01  -3.7563382517208310e-01  -3.4112609275723660e-01  -2.9635815980716423e-01  -3.1261076975287572e-01  -4.0079722293257208e-01  -3.8110624684698691e-01  -3.2439875018063224e-01  -4.2993716628203715e-01  -4.0051967474737621e-01  -3.7845075462566591e-01  -3.3296121527735451e-01  -2.7124912636217041e-01  -8.7124681024734099e-02  -2.4924189378477551e-01  -1.8566252047638912e-02  -3.1094326624894813e-03  -3.0602344895224495e-02  -4.1687251322988499e-02  -4.1545123301569931e-01  -3.5969454667064460e-01  -3.4668298238157291e-01  -3.5266345346757666e-01  -3.3413705246519526e-01  -3.2875940429863981e-01  -3.3937341354093536e-01  -4.5726488433505241e-01  -2.8277964477234457e-01  -3.5546904380113165e-01  -3.1421342511777867e-01  -1.1443674359497204e-01  -3.4845083898963880e-01  -2.7530289592980872e-01  -3.9351460458514076e-01  -3.5990996871561598e-01  -3.4550129504550187e-01  -2.2312396836071349e-01  -3.2139891379714380e-01  -4.4260382365021123e-01  -3.0999180473185040e-01  -3.0932764226440435e-01  -3.6028427175010919e-01  -3.2281147479948707e-01  -2.7499893087895000e-01  -2.7774910140181797e-01  -3.2465698085747985e-01  -2.7665879846578595e-01  -3.2373046875317846e-01  -2.7358286228819456e-01  -3.2071008562566689e-01  -2.6710262517796651e-01  -3.1513084519862622e-01  -2.6012534490738087e-01  -3.0790318122152233e-01  -3.5492335214410836e-01  -3.4794802559532167e-01  -3.0141234376068193e-01  -3.4032314463569829e-01  -3.7900499338629162e-01  -3.7144270190661621e-01  -3.3162845640171695e-01  -3.6130264190498323e-01  -3.2068334147694233e-01  -3.4642382763625434e-01  -3.8152040701567308e-01  -3.0684254432161662e-01  -3.6305775088898612e-01  -4.1498857698543068e-01  -3.9230923425841985e-01  -4.1047993123914261e-01  -3.7026357196323290e-01  -3.9498669199918368e-01  -3.6869074457329409e-01  -3.9045749185007428e-01  -3.4031427304970358e-01  -2.8600504838766172e-01  -4.1388040046030417e-01  -3.5892911042342512e-01  -3.8347150212388514e-01  -2.7926257908908675e-01  -2.5721168311276166e-01  -2.2199500196358554e-01  -1.3385386126418685e-02  -1.9817081646900628e-01  -1.7288414868010832e-01  -3.6381112344582311e-01  -4.0895909538093173e-01  -4.1246202905510948e-01  -4.0619892468144975e-01  -4.1845017406679846e-01  -1.8516870588709494e-01  -2.2832292006895558e-01  -3.2322615176535124e-01  -2.9759556171586826e-01  -3.1763933170719760e-01  -4.5259685215669027e-01  -2.1316643660484516e-01  -3.2565152231752159e-01  -2.6214036075677327e-01  -2.7358335205397993e-01  -2.9963439117452129e-01  -3.0911566776838578e-01  -3.4289093190394893e-01  -3.6334588467898271e-01  -3.3333338361317655e-01  -2.3720409076313356e-01  -2.0396717964584599e-01  -1.9566333694465793e-01  -2.6228650453655566e-01  -1.0494580360062192e-01  -2.8283168183834828e-01  -3.1667522233252521e-01  -2.8499949884094811e-01  -3.1747608901461694e-01  -3.6739874012025198e-01  -4.1418288970726869e-01  -1.9386841220951390e-01  -2.7872541379372018e-01  -2.8647406845047690e-01  -1.9369049770471336e-01  -1.4607549769266623e-01  -1.5714968510158264e-01  -1.2522280043162962e-01  -4.5411606522183889e-01  -2.4039841621146210e-01  -2.4372918515275258e-01  -3.2213625353875286e-01  -4.0199922110818165e-01  -4.0854495909828298e-01  -4.2372896762836426e-01  -4.2875865634064608e-01  -4.3700620556612296e-01  -4.4087018440589698e-01  -4.3321448088593240e-01  -4.4287435027376931e-01  -4.3941894159164296e-01  -4.4047545412124200e-01  -4.3754124100467018e-01  -4.3534374312783974e-01  -4.3406869432753759e-01  -3.1870252227369938e-01  -3.4195982192131402e-01  -2.8897218572272304e-01  -3.8560232059827289e-02  -4.7828964550070296e-02  -4.2076881337500271e-01  -4.0463798310038401e-01  -3.7684118329956529e-01  -3.5820734964355910e-01  -3.1816481783334566e-01  -3.3810061343282627e-01  -3.7062642501297949e-01  -3.5374705251501781e-01  -3.8280450899546209e-01  -3.6600932190467489e-01  -3.8619092176842129e-01  -3.7332144857206218e-01  -3.4614364882999715e-01  -3.5541183798511955e-01  -3.7784424178203241e-01  -3.6048572382833716e-01  -3.7835275535178386e-01  -3.6025200906271870e-01  -3.7429871063180947e-01  -3.5385353514788881e-01  -3.3414701473259623e-01  -3.6505709648623924e-01  -3.4041234350694027e-01  -3.1939927724953682e-01  -3.4945641963111368e-01  -3.1861112418595028e-01  -3.0770093093993611e-01  -3.9019342203105684e-01  -3.7969247770764142e-01  -3.1109569786987601e-01  -4.2443002257795920e-01  -2.4937923036902743e-01  -1.3272203888890052e-01  -1.4139430301861455e-01  -1.6137434727082961e-01  -3.2554327911347841e-01  -3.5448672507924534e-01  -2.8569331345102700e-01  -3.2092726553399348e-01  -2.9673610416638885e-01  -1.6518036911842160e-01  -4.3031636995615102e-01  -3.9421973184823178e-01  -3.9429963606275692e-01  -4.3649009767582292e-01  -4.4614805255642476e-01  -1.7819400201678329e-01  -1.0431798082270524e-01  -4.2622294506447050e-01  -1.2190024721238047e-02  -2.6824773964489312e-01  -2.4275509502346268e-01  -2.0447448146812064e-01  -1.7805293060070188e-01  -3.4038693253295671e-01  -4.1396069111830036e-01  -3.0317152579747680e-01  -2.6604250132425239e-01  -2.8641102243982630e-01  -1.9957120854532975e-01  -1.9675599997178034e-01  -1.5592648607296711e-01  -1.4164772679948739e-01  -1.2546106243487773e-01  -1.0275557429758828e-01  -1.0366948892569681e-01  -1.6218308605147008e-01  -1.2616994363595971e-01  -1.8975752930721579e-01  -1.1891785267550879e-01  -1.8212120125379486e-01  -1.1193485740955653e-01  -1.7590021720416282e-01  -3.7611210922997501e-01  -3.8406029181467327e-01  -3.7372564808270703e-01  -3.8961861174615375e-01  -3.9700114826692884e-01  -4.0090042030904294e-01  -4.0814135819554109e-01  -4.1001148652770136e-01  -4.1750308873654590e-01  -4.1819884920517558e-01  -4.2530612927276490e-01  -4.2565793172108601e-01  -4.3174958319964563e-01  -4.3246021576821891e-01  -4.3801969011956932e-01  -4.3894399439647014e-01  -4.4329282612539245e-01  -4.4531195944254381e-01  -4.4725327750128002e-01  -4.4979558826458249e-01  -4.3891349978807609e-01  -4.4634029057413366e-01  -4.5115996004166325e-01  -4.5305634948700113e-01  -4.5491682306397979e-01  -2.4438481707453827e-01  -1.5899746954595773e-01  -3.0437278454308075e-01  -2.3384949151117657e-01  -4.2509509027066178e-01  -4.0400720256031392e-01  -2.8101552028803262e-01  -2.8738580770177546e-01  -1.0878347460911651e-01  -3.3816109316295495e-01  -4.1360792532667057e-01  -2.0994588849776055e-01  -2.2087072503810642e-01  -3.9981292436729043e-01  -3.9701400321133684e-01  -3.1475719094657079e-01  -3.2020184689646292e-01  -4.0189276739750646e-01  -6.1066977499817765e-02  -2.8351715681633910e-01  -1.8222213475338345e-01  -5.2232726079665392e-02  -4.4056533152753247e-01  -4.7298184475924668e-02  -4.2735145078944570e-01  -2.2600734865171707e-01  -2.5007037066153626e-01  -2.9909419619972510e-01  -2.6296011661515262e-01  -1.8095958408101720e-01  -4.3882578265228250e-01  -2.3445989804732592e-01  -4.3336564648136988e-01  -4.2900821527450073e-01  -4.5248476856282155e-01  -4.0638775789161385e-01  -1.0865423444823398e-01  -1.0202513848770246e-01  -4.4184510904555213e-01  -9.4409734423381450e-02  -1.5877197973620566e-01  -8.2504867989682609e-02  -4.5539108994079974e-01  -4.4580486558924276e-01  -4.4450592104121467e-01  -3.9865760935678457e-01  -3.9561656970605896e-01  -3.9489890279587164e-01  -1.3174943421191335e-01  -1.5944657541061796e-01  -1.0464361837158627e-01  -1.4769128895976746e-01  -3.9367903124638404e-01  -1.0657712875656589e-01  -1.6881693062674269e-01  -9.8729753862702899e-02  -1.5727716172808615e-01  -2.1825624688404138e-01  -2.0137548226505483e-01  -1.4195846945090415e-01  -1.7496033799069399e-01  -2.2920946165666373e-01  -1.1856663538534941e-01  -1.9017914621195930e-01  -2.3939111009434574e-01  -1.8379875779205285e-01  -2.3087240920635013e-01  -2.7690378268913779e-01  -4.4351393790497040e-01  -3.6179512025096433e-01  -3.6439117905451007e-01  -3.7101532116379554e-01  -3.5557136662744354e-01  -3.9897640531708906e-01  -3.8700010069102359e-01  -3.9032823657411170e-01  -3.8550771105861892e-01  -3.7941164417357071e-01  -3.8101416613502997e-01  -3.8655716763802828e-01  -4.2397133582070584e-01  -2.5561960631735520e-01  -2.1379105049674749e-01  -2.5188059948498703e-01  -2.2689052504215226e-01  -1.6421559382561948e-01  -4.1200758330512421e-01  -4.3197585484414180e-01  -1.3737466955502094e-02  -9.1288401239330103e-02  -3.7054251186850706e-01  -1.5305575135631391e-01  -2.3150861668772738e-01  -2.1283911109605147e-01  -1.3177374368091985e-01  -1.9234132678588817e-01  -2.5050328399911775e-01  -2.1542872747451897e-01  -1.5977486881727201e-01  -9.3882646023252012e-02  -2.7230394193283902e-01  -4.1841816281241373e-01  -4.2753163060367860e-01  -4.2048049698683598e-01  -3.9397666568944673e-01  -1.6135727087157412e-01  -3.7284912555633587e-01  -3.2873236971070918e-01  -3.3979865239463425e-01  -3.9594622532526413e-01  -3.8625259764021713e-01  -3.9703840397468831e-01  -3.6170265400760365e-01  -3.9616866597803679e-01  -3.9643146576052873e-01  -4.2156627178183464e-01  -4.1964734887452010e-01  -4.2086653060899837e-01  -3.9482442684568869e-01  -4.1872661138494643e-01  -4.3897065587685663e-01  -3.9138482367809513e-01  -4.4868517420859899e-01  -4.3728976079333348e-01  -4.5000304514699296e-01  -3.0390217234362280e-02  -6.4599154735948003e-02  -4.3599405499905514e-01  -3.1763211408832959e-01  -3.5593321292416108e-01  -8.1374629578499655e-02  -2.5538906798700528e-01  -2.1261786723509844e-02  -2.3774377990063933e-02  -2.8389844291587385e-01  -2.7341921341001779e-01  -1.4372441969905342e-01  -1.3804710849450005e-01  -2.0173061298524919e-01  -3.8879137977989658e-01  -3.8854453477433903e-01  -3.8523814955174179e-01  -3.8961583266285760e-01  -3.9229546147200078e-01  -4.3413990299618155e-01  -1.2139987219851435e-01  -1.8407255646171064e-01  -8.9930285557750150e-02  -3.6072252738538418e-01  -1.4807474927386496e-01  -2.4321430119226436e-01  -2.2602835559823564e-01  -1.0459979400285720e-01  -4.4561314417226072e-01  -2.3314680586238837e-01  -4.0697627783495627e-01  -4.4436089897531533e-01  -1.0385507838794664e-02  -2.4859029102491322e-02  -2.8685833954217480e-02  -2.3678828846492997e-01  -4.2976213946852820e-01  -7.0442423480585784e-02  -3.6748762200299162e-01  -2.1368658211903252e-01  -1.6444582634692267e-01  -3.4233141592702815e-01  -2.9679632866994109e-02  -3.1752506627005439e-01  -2.1380519645157725e-01  -6.4448596781807907e-02  -1.5558950573633445e-02  -7.7738814227223299e-02  -5.6418444058790630e-02  -3.6726563266020418e-02  -4.0726096756349911e-01  -3.6640559243673415e-01  -2.4615191374725889e-01  -4.3100069086188830e-01  -3.6787929779025613e-01  -1.1255919645180407e-02  -5.5129102976250385e-02  -1.4637598901449470e-01  -3.7809281444000992e-01  -2.5264307119169149e-01  -4.1502843913678500e-01  -5.7611219012345498e-03  -1.3202742620185209e-01  -9.0987622191627357e-02  -7.4524305974567301e-02  -1.5477646198905332e-01  -2.2414839661301394e-01  -1.3799648514076874e-02  -3.7454500212502073e-01  -2.3508349875605386e-01  -4.4976618064891943e-01  -4.4415748521343601e-01  -3.6408431676187192e-01  -1.6148344981600074e-01  -2.8426948156533988e-01  -1.3655461915755829e-01  -4.1766553892218383e-01  -3.3103669067529856e-01  -2.6597466571981171e-01  -4.4007562133976641e-01  -1.0536829844323370e-01  -1.4016850721226676e-01  -2.1321096109440424e-01  -2.1632566851867557e-01  -3.50393181