<?xml version="1.0"?>
<VTKFile type="UnstructuredGrid"  version="0.1"  >
<UnstructuredGrid>
<Piece  NumberOfPoints="1242" NumberOfCells="2386">
<Points>
<DataArray  type="Float64"  NumberOfComponents="3"  format="ascii">0 0 0  0 1 0  1 1 0  1 0 0  1.1 -0.1 0  -0.1 -0.1 0  1.1 1.1 0  -0.1 1.1 0  0.5011740420054976 0.5063023814579058 0  0.5969147956720379 0.732138010211175 0  0 0.9499999999997918 0  0 0.8999999999995836 0  0 0.8499999999996529 0  0 0.7999999999999998 0  0 0.7500000000003466 0  0 0.7000000000006934 0  0 0.6500000000010401 0  0 0.6000000000013869 0  0 0.5500000000017335 0  0 0.5000000000020587 0  0 0.4500000000018723 0  0 0.4000000000016644 0  0 0.3500000000014564 0  0 0.3000000000012483 0  0 0.2500000000010403 0  0 0.2000000000008322 0  0 0.1500000000006241 0  0 0.100000000000416 0  0 0.05000000000020799 0  0.04999999999989965 0 0  0.09999999999981467 0 0  0.1499999999997036 0 0  0.1999999999995579 0 0  0.2499999999994121 0 0  0.2999999999992664 0 0  0.3499999999991206 0 0  0.3999999999989749 0 0  0.4499999999988292 0 0  0.4999999999986943 0 0  0.5499999999988151 0 0  0.5999999999989468 0 0  0.6499999999990784 0 0  0.69999999999921 0 0  0.7499999999993417 0 0  0.7999999999994734 0 0  0.8499999999996051 0 0  0.8999999999997368 0 0  0.9499999999998684 0 0  1 0.04999999999989965 0  1 0.09999999999981467 0  1 0.1499999999997036 0  1 0.1999999999995579 0  1 0.2499999999994121 0  1 0.2999999999992664 0  1 0.3499999999991206 0  1 0.3999999999989749 0  1 0.4499999999988292 0  1 0.4999999999986943 0  1 0.5499999999988151 0  1 0.5999999999989468 0  1 0.6499999999990784 0  1 0.69999999999921 0  1 0.7499999999993417 0  1 0.7999999999994734 0  1 0.8499999999996051 0  1 0.8999999999997368 0  1 0.9499999999998684 0  0.9499999999997918 1 0  0.8999999999995836 1 0  0.8499999999996529 1 0  0.7999999999999998 1 0  0.7500000000003466 1 0  0.7000000000006934 1 0  0.6500000000010401 1 0  0.6000000000013869 1 0  0.5500000000017335 1 0  0.5000000000020587 1 0  0.4500000000018723 1 0  0.4000000000016644 1 0  0.3500000000014564 1 0  0.3000000000012483 1 0  0.2500000000010403 1 0  0.2000000000008322 1 0  0.1500000000006241 1 0  0.100000000000416 1 0  0.05000000000020799 1 0  -0.1 1.05000000000004 0  -0.1 1.000000000000079 0  -0.1 0.9500000000001624 0  -0.1 0.9000000000003032 0  -0.1 0.850000000000444 0  -0.1 0.8000000000005848 0  -0.1 0.7500000000007256 0  -0.1 0.7000000000008665 0  -0.1 0.6500000000010508 0  -0.1 0.6000000000012352 0  -0.1 0.5500000000014196 0  -0.1 0.500000000001539 0  -0.1 0.4500000000014195 0  -0.1 0.4000000000013 0  -0.1 0.3500000000011588 0  -0.1 0.3000000000010178 0  -0.1 0.2500000000008986 0  -0.1 0.2000000000007579 0  -0.1 0.1500000000006174 0  -0.1 0.1000000000005272 0  -0.1 0.05000000000040083 0  -0.1 2.671196597248127e-13 0  -0.1 -0.0499999999998666 0  -0.0500000000000906 -0.1 0  -1.730560139634463e-13 -0.1 0  0.04999999999975802 -0.1 0  0.09999999999961506 -0.1 0  0.1499999999994613 -0.1 0  0.199999999999302 -0.1 0  0.2499999999991446 -0.1 0  0.2999999999990088 -0.1 0  0.3499999999988296 -0.1 0  0.3999999999986936 -0.1 0  0.4499999999985143 -0.1 0  0.4999999999984002 -0.1 0  0.5499999999985247 -0.1 0  0.5999999999986493 -0.1 0  0.6499999999987955 -0.1 0  0.6999999999989417 -0.1 0  0.7499999999990659 -0.1 0  0.7999999999992116 -0.1 0  0.8499999999993573 -0.1 0  0.8999999999994526 -0.1 0  0.949999999999584 -0.1 0  0.9999999999997226 -0.1 0  1.049999999999861 -0.1 0  1.1 -0.0500000000000906 0  1.1 -1.730560139634463e-13 0  1.1 0.04999999999975802 0  1.1 0.09999999999961506 0  1.1 0.1499999999994613 0  1.1 0.199999999999302 0  1.1 0.2499999999991446 0  1.1 0.2999999999990088 0  1.1 0.3499999999988296 0  1.1 0.3999999999986936 0  1.1 0.4499999999985143 0  1.1 0.4999999999984002 0  1.1 0.5499999999985247 0  1.1 0.5999999999986493 0  1.1 0.6499999999987955 0  1.1 0.6999999999989417 0  1.1 0.7499999999990659 0  1.1 0.7999999999992116 0  1.1 0.8499999999993573 0  1.1 0.8999999999994526 0  1.1 0.949999999999584 0  1.1 0.9999999999997226 0  1.1 1.049999999999861 0  1.05000000000004 1.1 0  1.000000000000079 1.1 0  0.9500000000001624 1.1 0  0.9000000000003032 1.1 0  0.850000000000444 1.1 0  0.8000000000005848 1.1 0  0.7500000000007256 1.1 0  0.7000000000008665 1.1 0  0.6500000000010508 1.1 0  0.6000000000012352 1.1 0  0.5500000000014196 1.1 0  0.500000000001539 1.1 0  0.4500000000014195 1.1 0  0.4000000000013 1.1 0  0.3500000000011588 1.1 0  0.3000000000010178 1.1 0  0.2500000000008986 1.1 0  0.2000000000007579 1.1 0  0.1500000000006174 1.1 0  0.1000000000005272 1.1 0  0.05000000000040083 1.1 0  2.671196597248127e-13 1.1 0  -0.0499999999998666 1.1 0  0.6208497211610731 0.7213121296205303 0  0.6435788922126839 0.7074526480349349 0  0.6649040615786631 0.6904576212936931 0  0.6841302609887225 0.6709060569203954 0  0.7005170453568192 0.6490785727756625 0  0.7142891435296651 0.6258546855004918 0  0.725266431862446 0.6015133782110801 0  0.7332635682555646 0.5764944205848097 0  0.7388509840195504 0.5512460157318584 0  0.7420353555946552 0.5259467335140734 0  0.7424622272908044 0.5008231240620161 0  0.7410483033024934 0.4759761660088238 0  0.7374198974133965 0.451476473320655 0  0.7317182043127188 0.4275155200069533 0  0.7243390889341375 0.403970913867414 0  0.7144350130327822 0.38097420231815 0  0.7021389421812175 0.3587640595353386 0  0.6874631383763091 0.3374075133593612 0  0.670354948025945 0.3173256341619662 0  0.6509288465341091 0.2990354463251483 0  0.6293826192475166 0.28307540062185 0  0.6059508087762493 0.2698162537209552 0  0.581130399164744 0.25955541182666 0  0.5554116123492336 0.2523132149234262 0  0.5292606947381805 0.2484268693337438 0  0.5033235722826321 0.24771855984856 0  0.478252585448214 0.2496293296756646 0  0.4547292955342274 0.253034173182094 0  0.4322000401374308 0.2580642973618834 0  0.4105443014970445 0.2654262524281979 0  0.3900433052231439 0.275196224957678 0  0.3710282683861905 0.2868793065405476 0  0.3532150571633719 0.299916433399196 0  0.3365708465074402 0.3146482152921257 0  0.3207189566668826 0.330908761787912 0  0.3058962480443093 0.3489292749749738 0  0.2922970007937643 0.3686057170924207 0  0.2801732519656158 0.390052785990962 0  0.2695716199571995 0.4131645498336164 0  0.2609176888029928 0.4378202156980988 0  0.2550050461704157 0.4638836797992603 0  0.2522155666747419 0.4910412220880283 0  0.2524090960825756 0.5183797889283992 0  0.2563293663740283 0.5453585177481768 0  0.2632505467493246 0.571869329018728 0  0.2734249534019197 0.59730552164969 0  0.2861389447330933 0.6212154881253158 0  0.3010067960435524 0.6431368791080146 0  0.3173959218702919 0.6631775692073635 0  0.3347368986694318 0.6811160621748261 0  0.3532531304744185 0.6968618937461329 0  0.3728217079867466 0.7106382408354843 0  0.3931170125764539 0.7223767680127409 0  0.4139857640264191 0.7319761125292688 0  0.4355406973604545 0.7392760193884738 0  0.4575417611422424 0.7446637691812946 0  0.4797310733696297 0.7479938417480075 0  0.5022458522365676 0.74927795282276 0  0.5252817743030402 0.7485427939758085 0  0.548826577266015 0.7454909222295688 0  0.572583571345227 0.7400239514081839 0  0.2831984333104188 0.4384120146419793 0  0.3233259836581296 0.6305991187184873 0  0.6453176045182006 0.6830111233156331 0  0.7087758439231485 0.5849642317291144 0  0.5629762592460922 0.7152526664438008 0  0.4939256014506074 0.7224786120040417 0  0.3127813501744485 0.3787213098529623 0  0.3592270322113434 0.3291651599325517 0  0.4124688179154517 0.2921618705911864 0  0.3765817562022663 0.6795339529854565 0  0.6075014450687476 0.2934991458280046 0  0.4961449482038552 0.2693666265291934 0  0.6753711952811053 0.3582301177727106 0  0.7062826824939848 0.4211527295927618 0  0.431874970570371 0.7089560956916416 0  0.7215424836848133 0.5152362622809183 0  0.2839502077435928 0.5737987689553108 0  0.2699197653912075 0.5062167262370126 0  0.4524536652810733 0.2765949674658467 0  0.7175936695457384 0.4685631188442727 0  0.6894479711842549 0.6305507608389884 0  0.5439117972868707 0.2714332347984894 0  0.6024822714587924 0.70705849277851 0  0.6465764632639921 0.3213826312739696 0  0.3760499330240737 0.3150074915721327 0  0.382024898573063 0.3438510514851321 0  0.363171682600658 0.3583437644584616 0  0.3859860147624681 0.3740940529633381 0  0.405707757106579 0.3577400867363205 0  0.4068807995693925 0.3866297068889194 0  0.390216726268225 0.4065119458093963 0  0.4321924777974734 0.3745395902661828 0  0.4225397176349291 0.4226603232733669 0  0.3930887510721743 0.4487917931782505 0  0.4612027035789291 0.4148147841584431 0  0.4729264045682456 0.364399962296129 0  0.5035041529054606 0.4107356997582789 0  0.5176524192841545 0.3628004392235444 0  0.5470407176809242 0.4054414701824944 0  0.5633567706734361 0.3587864183365961 0  0.5942458595531089 0.3971197123581232 0  0.5774356799225245 0.4406669041826545 0  0.6280393202710087 0.4328553353254669 0  0.6074466150887937 0.4732580621090093 0  0.6471571683661177 0.465321759088335 0  0.6387368877494392 0.5063780013854943 0  0.5936965760501023 0.5150866160365217 0  0.6266705177715409 0.5471584022347068 0  0.5810764073107222 0.5586967461021987 0  0.6129368255736938 0.5903817706741299 0  0.5666899418744223 0.603407060877878 0  0.594510715930374 0.630334470264692 0  0.5609016038434538 0.6487913384161251 0  0.5327635480572011 0.6229079336351121 0  0.627768548836749 0.6226582384360447 0  0.5976516679166969 0.3661783630036146 0  0.3682678047862195 0.424975575391541 0  0.3629474396039122 0.4626096979516413 0  0.3939595676326943 0.4932920890810747 0  0.3607288519666068 0.5106496327654163 0  0.3924781539941877 0.5377477832911897 0  0.3635061820222135 0.5552578009474953 0  0.3881827057365968 0.5856557160779868 0  0.3373463768886297 0.5349580823583536 0  0.421252514408048 0.5638760154444761 0  0.4167795232199268 0.6128996206634691 0  0.4583323396727184 0.5853545476705836 0  0.4449934286167649 0.6324785621687995 0  0.3347128935776695 0.4438084477312317 0  0.5349861507098934 0.3381828898636999 0  0.6544043591392341 0.53207184
[...]
<PointData  Scalars="u"> 
<DataArray  type="Float64"  Name="u"  format="ascii">-6.7695639473813402e-18  -1.0595786550777748e-17  -1.8318807572886360e-17  -3.4713164970451202e-18  1.7038634178147826e-19  3.2557875698162754e-19  -2.9687064775667674e-19  5.3486664583327865e-19  1.4155608186897936e-01  -1.0759397851397247e-01  -1.2795014069243116e-17  5.4994265446808424e-18  -3.7687365913812025e-18  -1.6378808403980163e-17  -4.9251659884044706e-18  -4.5952143239841947e-17  -1.9546987439809038e-18  3.0582913886457031e-17  2.8788377371679695e-18  -3.1967924320185214e-17  2.5691226935127039e-17  6.5084666717678081e-19  2.8663167070288030e-17  5.0327825678471385e-18  -4.7770886117061362e-17  -7.9265695144936761e-18  -4.2736618716507953e-18  6.2697573923345398e-18  4.2956123845823593e-18  -6.6543897920291045e-18  -4.9030797170094693e-17  -2.1857505233537959e-17  1.8853903906192444e-17  -4.0709449769944254e-17  -3.7750797443531600e-17  -3.0723323393120321e-17  -1.0773111717735250e-16  1.5846027511491674e-18  3.9108129546665914e-17  -6.1278924654792560e-17  -4.2055675438944643e-17  -6.7448356452072407e-17  -3.6537606347056667e-17  -1.3699509114841288e-17  -6.1309200534031630e-17  -1.2831429936964578e-17  -2.5602512646044879e-17  2.0036600368576341e-17  4.2119263829429385e-17  -1.1074818807435552e-16  -1.8635683351685358e-16  8.7918702409876666e-17  -7.4478372752573622e-18  -9.9982292841077330e-17  1.3097761926323536e-17  4.5382837410008032e-16  5.0822823180280632e-17  -2.2793496410526048e-16  1.1882088422463543e-16  -1.5300354374005397e-16  3.2676562033271267e-18  -1.9604691002184958e-17  1.2531666789565172e-16  -1.2508599566312312e-16  -1.0270658471524394e-16  8.0416059946555650e-17  8.0350523938391459e-18  -8.1466614239652116e-17  -3.1094748840193554e-17  -2.9278629870430877e-17  1.1409099196449860e-16  1.5736528744762737e-16  -3.1164453500659004e-16  -3.7056498924767592e-17  -1.9036844351634621e-16  3.8221808027442003e-16  1.2465892575654089e-16  -2.0301557170052882e-16  1.9244419094924334e-16  -1.9617727336364950e-17  2.2994614141462326e-16  -1.4029223422604926e-16  -1.3966055771993832e-16  -2.0554071093078246e-16  -7.3389199241354869e-18  -1.0803927462953280e-17  -1.2227162119761068e-20  -1.5440161162171669e-18  -1.4256391251248647e-18  1.5091437531682827e-19  -1.3776348747642633e-18  2.2225347767565806e-18  -3.5681069242246360e-18  -1.0608311453600022e-17  2.3815015281058844e-19  4.5844284613401457e-18  8.6885739334374900e-19  -1.7883819626005871e-18  1.3222868538656026e-18  2.1317251059913972e-18  4.0517513465478247e-18  -2.9676096782470992e-18  -4.7301387053016997e-18  -1.6033201387956330e-18  -9.3849932668211410e-19  4.8482729196514557e-19  3.2001129245767786e-19  -6.1885575416703483e-19  -2.2877076793477778e-19  -1.9990457820804154e-19  -5.0374234922142517e-19  -2.0324206983199425e-18  -6.2932794921087519e-18  -1.8286401359084409e-18  -1.2561306264174202e-18  -6.9798173015970746e-18  -6.4880824855124310e-18  -6.4493376791003948e-18  -1.2886529942148765e-17  -8.6857440749455516e-19  2.0419149558404219e-18  -5.9084054572971092e-18  -8.6997704785648237e-18  -9.5441033268837615e-18  -4.4719048051348596e-18  -3.5822441598522179e-18  -6.7918306659607615e-18  -4.4747836530305645e-18  -1.6456877264363566e-18  1.0172202218696533e-18  6.2541424031135532e-19  -5.3489639613616399e-19  2.3829560584900839e-19  -7.2407099269478976e-19  -4.1071086149708432e-18  -4.7274712099047819e-18  -4.0073686309814670e-18  -2.5790025696525251e-18  -1.1022401115948478e-18  3.9848793990084708e-19  2.7631202239402419e-19  1.2028572211130960e-18  -3.0917484818059044e-19  -5.5023333810710636e-18  -9.8710389318424289e-18  -6.7309147500999013e-18  -1.4077082132182208e-18  -1.7132096757482461e-18  -4.2157019244408229e-18  -1.4980262981778609e-18  5.6738624711179681e-19  7.6760587421382407e-20  4.4967285188665402e-19  9.1829114890203693e-19  -7.1745932696435000e-20  4.8829322750398592e-19  -3.7371305467663176e-20  -3.0870299943750348e-18  -4.3503826907358699e-18  -3.9469325135832362e-18  -1.2745495567795359e-18  2.3304553064649968e-18  -1.3960980549559935e-18  -5.4407418282534155e-18  -3.3536140126163554e-18  3.0830078828745019e-18  -3.2668783450103583e-18  -4.0453402121195468e-18  2.3524161316938083e-18  -2.6489968671479714e-18  -6.4786125275956745e-18  -4.9126637329082396e-18  -3.5488051631352810e-18  -2.8780096047927576e-18  5.6474362949146609e-19  1.9807287782644803e-18  -3.0804116077802794e-19  -6.8966547189188703e-19  -1.1053277802283556e-01  -1.1278132863074172e-01  -1.1357782046788414e-01  -1.1375583089210223e-01  -1.1243673611485061e-01  -1.1039388820735488e-01  -1.0779156683581322e-01  -1.0507304815331889e-01  -1.0288768141226490e-01  -1.0124787256623306e-01  -1.0063233881199767e-01  -1.0079039039963666e-01  -1.0176514845069244e-01  -1.0345828073358215e-01  -1.0543017798311768e-01  -1.0802305854612498e-01  -1.1006822121402832e-01  -1.1146320808917003e-01  -1.1214852912072208e-01  -1.1182214654194236e-01  -1.1048814475579113e-01  -1.0831498394034851e-01  -1.0573499834834710e-01  -1.0353130426746329e-01  -1.0162848589553258e-01  -1.0048431988947520e-01  -1.0037512134678649e-01  -1.0155227534586778e-01  -1.0357721401767131e-01  -1.0575223591949313e-01  -1.0755139691478480e-01  -1.0892347226817495e-01  -1.0990644483397284e-01  -1.1022959394814336e-01  -1.1019376544343723e-01  -1.0964707762426903e-01  -1.0857717218040489e-01  -1.0719639137065534e-01  -1.0579561583969861e-01  -1.0472021056917818e-01  -1.0381625079037397e-01  -1.0320643925314660e-01  -1.0394031668961934e-01  -1.0460080050613660e-01  -1.0641534741003014e-01  -1.0809138180339034e-01  -1.0965118280044175e-01  -1.1068971256574145e-01  -1.1132945500367655e-01  -1.1138485889925369e-01  -1.1077432690594527e-01  -1.0962191104898536e-01  -1.0801271831586884e-01  -1.0639814345508246e-01  -1.0455005364735168e-01  -1.0304983412662738e-01  -1.0218299835475256e-01  -1.0188638362022549e-01  -1.0226252925708867e-01  -1.0337824325547562e-01  -1.0530812819565220e-01  -4.7322090116726348e-02  -4.4832559846987446e-02  -5.8622180244794896e-02  -4.8961233649749095e-02  -4.1767329450316325e-02  -3.9463393479096047e-02  -4.6777123495439277e-02  -4.3323254614324104e-02  -4.3955302293760934e-02  -4.1345783161540535e-02  -5.3237485287898428e-02  -4.4967004945883279e-02  -5.0048430925535639e-02  -4.4201192016445193e-02  -3.9609528459332459e-02  -4.4197036225674495e-02  -5.2746846504850162e-02  -5.2131234884078947e-02  -4.4141161068268368e-02  -4.1948464387399242e-02  -5.5426634322673966e-02  -4.8134475676672700e-02  -5.2544875208892901e-02  -5.5019911581063882e-02  -4.3740995746446319e-02  -5.9824258138425346e-03  -8.9858988569094106e-03  3.0148570562293527e-02  3.0407641554578410e-02  5.9548431424038026e-02  6.1873258227283852e-02  6.5932987196713505e-02  9.5641651804322922e-02  8.6798327557001162e-02  1.0881731053754329e-01  7.2311927667520662e-02  1.1248192545756477e-01  7.2503807174357920e-02  1.0027551653739343e-01  5.4235740321713480e-02  6.8539249026156893e-02  1.0497301566209115e-01  6.1328920106258344e-02  9.3441090430633506e-02  5.2635023292925007e-02  6.6754171922570091e-02  1.0592610724853929e-01  7.0806692446346145e-02  1.0263228474218770e-01  6.1957283323129900e-02  8.3806331737549380e-02  4.3903796825654227e-02  4.4925592975292035e-02  8.0089069868676852e-02  2.0867424727024606e-02  3.7913459155703044e-02  5.3030132874072586e-02  6.4152365690787194e-02  9.6982059461110853e-02  6.6311082071468755e-02  8.9950491055798276e-02  5.7381756446017555e-02  6.3809015128442850e-02  3.4166451633923275e-02  1.0047386660520391e-01  6.5074443444335051e-02  1.0612188375950506e-01  6.2466315301201059e-02  2.3232042599325202e-02  4.1555244300887820e-02  4.4202266332599952e-02  1.2954329797816029e-02  5.2728363413336664e-02  2.2420270495133780e-02  1.1008735295138418e-02  4.2788545267639699e-02  5.7307662600375514e-03  2.7734930220976203e-03  9.4423639912055747e-03  -1.3227684588169435e-02  -6.7439352310090985e-03  2.5928015426210132e-02  -3.7581760574794260e-03  6.8373902702315191e-03  -1.8390162898614362e-02  -1.9057605198205419e-02  6.6105985071955534e-03  6.8197923314544634e-02  1.0532245492040221e-01  2.7040665176047265e-02  1.8399317613244197e-02  -7.9174431450498815e-03  -2.9658442612770959e-03  2.0651823085408694e-02  7.7566954750689027e-03  3.2369447989266185e-02  -3.8781396271619084e-03  1.1236510933917078e-03  1.2238364032261828e-02  1.1665907256119526e-01  -2.3679044587726662e-02  6.6036955121285814e-03  2.9273704284937127e-02  4.7151779854197849e-02  6.5825390841521480e-03  3.5048266733793089e-03  2.8338688524408885e-02  -3.2809875313239982e-03  -7.1827403172298422e-03  -2.0936175991397659e-03  -1.4069329701056619e-02  -1.8158775038128915e-02  2.3940225599340732e-02  4.7893214576336341e-03  2.5647685242074357e-02  3.4102236382887547e-03  2.5470767915494259e-02  -1.5200586653960634e-02  4.0141107329846347e-02  -2.7508085505118650e-02  -1.3138327518489647e-02  -2.9826990423286376e-02  -7.7295544749868481e-03  1.2496414717959482e-01  1.2917424583106404e-01  -4.3790149311875207e-02  -3.9608406353890804e-02  -4.6511433885998488e-02  1.2964252504551377e-01  -4.5888951822540394e-02  2.3043590446994559e-02  -5.7618723609028123e-03  -5.0106009213551642e-02  -4.6001071644878572e-02  -4.3982368138490047e-02  -4.2655741546027984e-02  -5.0080318062672151e-02  -4.7448935653052374e-02  4.7612708691728185e-02  -2.3806095876915515e-02  -2.6282623729604267e-02  -4.4514300892629546e-02  -9.0606319079699609e-03  -4.4673015148249687e-02  -5.2768594962378360e-02  -4.5265149236630942e-02  -6.1217462962350453e-04  -4.9672196537728787e-02  -3.6887807425522945e-02  -1.4708291504309396e-02  -3.9207092681784891e-02  -4.2249395111663986e-02  -1.2240818349580440e-02  -4.6996381673063081e-02  -5.2822535128991516e-02  -9.3442048682340732e-03  1.3269321844965615e-01  -5.3801006473292570e-02  1.1427270319976483e-01  -5.4496818907554166e-02  -4.5730244137300653e-02  -2.1651659456747640e-02  -1.3834214054842350e-02  -5.5688831569524117e-02  -5.3127136687012605e-02  -2.7350160092149921e-02  -5.3977651109612217e-02  -1.4567305758920885e-02  -5.6163262137264691e-02  4.4394219436813855e-02  1.2714296214476936e-01  1.1719745996832957e-01  -9.3387288115984804e-03  -1.4923821675607334e-02  -1.7843749739574772e-02  -5.4413134823707902e-02  -2.8486135948002315e-02  -1.9507027590403295e-02  -4.7874907402516854e-02  -3.0761129274409951e-02  -5.9936685051545126e-02  -3.0280959760992324e-02  -4.7299541622538709e-02  3.1258187227494391e-02  -9.0211841279915651e-03  -4.1584547269834245e-02  -5.4092695197968825e-02  -2.8750534447639524e-02  -4.9653947075723098e-02  -5.3250132589993567e-02  -5.0114381192014106e-02  1.3316448188071412e-02  -1.7452221372645543e-02  2.3247507493259243e-02  -6.2676674667841936e-02  -2.8754089632413517e-02  -1.5578615901294803e-02  1.3492407233785167e-01  -1.6628270127205837e-02  -2.1259947580192014e-02  -2.9012458790273209e-02  2.9919440339544461e-02  -1.2140368011035475e-02  -1.3868182789274592e-02  -2.8836920334436582e-03  3.2785437917915005e-03  -2.0582838966019635e-02  3.0948695712874230e-02  -2.9078881501290940e-02  -1.7557583912340722e-02  1.2970952530647294e-02  -1.8684473588135318e-02  9.3216195828573663e-03  3.3925706441884827e-02  8.3049311486955657e-02  1.5808060474538383e-02  -2.6526701390049527e-02  1.2647902194404521e-02  3.2612594632288189e-02  1.1804249781965304e-02  -2.1204398045883040e-02  1.3237804577333659e-01  3.4302217341776194e-02  2.9857745435986707e-02  2.8471687709575162e-02  -2.8068771909100003e-02  8.7417275474275958e-03  1.3807031554750162e-02  1.2157831721982330e-01  -2.9915216621857865e-02  -2.1259039393618236e-02  -3.8834127932991405e-03  3.0891969271868321e-02  3.1936294176556079e-02  -3.9143282425638103e-02  3.3731811219931053e-02  1.9657490219157293e-02  1.5901369369329788e-02  -4.3663142339125409e-03  -1.9467147872369899e-02  -3.2097956593146092e-02  4.3148285288291705e-02  2.2404316522520791e-02  -5.6534207418654718e-02  3.2346639604633187e-02  -6.0090273703801836e-02  -1.4657855271825979e-01  -1.4361957465108111e-01  -1.4745162198833564e-01  -1.4998808787886719e-01  -1.4695486839998703e-01  -1.4420679086224658e-01  -1.4358253779947630e-01  -1.4608571642210569e-01  -1.4436686075739005e-01  -1.4667038928936790e-01  -1.3734956567900744e-01  -1.4409815341480620e-01  -1.4016301645627371e-01  -1.4348086645780664e-01  -1.3693348354694607e-01  -4.6316983684185062e-02  -1.3621562743167595e-01  -4.8752442136322106e-02  -6.6151821680115797e-02  -1.3679556256438272e-01  -6.6776081817187513e-02  -1.3828447952727219e-01  -6.4401234779041652e-02  -5.8274506937197622e-02  -6.5334561142771475e-02  -1.3779851878941748e-01  -1.3335516585545562e-01  -6.7338944690447058e-02  -1.3800302322879113e-01  -1.3500174052493830e-01  -3.9292000421105658e-02  -1.3673984052882338e-01  -5.0893486161192977e-02  -5.8171226825762652e-02  -1.3465750051539935e-01  -6.6039984384813927e-02  -6.6310073935511193e-02  -8.7128852317411687e-02  -6.1232301729560346e-02  -5.9160665263723204e-02  -6.4678507841512176e-02  -6.5467406047188953e-02  -4.7486943188705284e-02  -8.5379844941174218e-02  -5.3513848373966062e-02  -4.5978587827082175e-02  -4.5880159381890571e-02  -5.1820742769516037e-02  -8.3849834338827353e-02  -5.4738250847201214e-02  -5.3084067299134619e-02  -5.8621065691848800e-02  -4.8167780717759380e-02  -1.4035046032253798e-01  -1.4768468140709809e-01  -1.4752240213110496e-01  -1.5336197382779002e-01  -1.5543837032008001e-01  -1.5235255399452835e-01  -1.5689698348397696e-01  -1.6182506055918333e-01  -1.5482978503165212e-01  -1.6225692878497730e-01  -1.6755537953428448e-01  -1.6982061984494301e-01  -1.7360053488713867e-01  -1.7662305332347644e-01  -1.8004834351028115e-01  -1.8100395078546447e-01  -1.8409699527543474e-01  -1.8223819377660103e-01  -1.8452770567521701e-01  -1.7851723826546811e-01  -1.7970080046589826e-01  -1.7166009374569019e-01  -1.8193184661654732e-01  -1.7691678310097675e-01  -1.6825858060796822e-01  -1.6517629270448228e-01  -1.7123442146450987e-01  -1.6053161664867166e-01  -1.4839200789619608e-01  -1.6433874278929420e-01  -1.5573243242396378e-01  -1.6347678506202473e-01  -1.6920990822434245e-01  -1.5230034877205978e-01  -1.5789154744056383e-01  -1.5158747958672833e-01  -1.5247261047888455e-01  -1.4838243083254840e-01  -1.3728892194135517e-01  -1.3625236926168904e-01  -1.4726787314101836e-01  -1.3745407429444617e-01  -1.4937301720495366e-01  -1.4098731574545761e-01  -1.5175366267878515e-01  -1.4535588820533973e-01  -1.5743963520990031e-01  -1.5114825268852103e-01  -1.6385021780956632e-01  -1.5686918733849514e-01  -1.6920316545520020e-01  -1.6138443584522849e-01  -1.7464529835663645e-01  -1.6395551055744628e-01  -1.7701496796661803e-01  -1.6359875599590051e-01  -1.7458237448731204e-01  -1.8257681484411051e-01  -1.7863626008480968e-01  -1.8277173679476372e-01  -1.7739887177399186e-01  -1.7940112008940839e-01  -1.7200525049507867e-01  -1.7363873721173864e-01  -1.6684270721150188e-01  -1.6367310417189371e-01  -1.6715244397965806e-01  -1.4208049211355131e-01  -1.5390580240719523e-01  -1.7419871317368654e-01  -1.1428744722660623e-01  -1.8102915703351133e-01  -1.6059092732482549e-01  -1.4339265245315744e-01  -1.3756160720000751e-01  -1.7805150464334868e-01  -1.2303249935146982e-01  -1.5885501356173143e-01  -1.5425431144097615e-01  -1.5843929166127144e-01  -1.6183017226562030e-01  -1.5728046991807637e-01  -1.4963508595041020e-01  -1.5268634608429552e-01  -1.2462392239740805e-01  -1.5044602526673628e-01  -1.7381589800713790e-01  -1.3607700136018891e-01  -1.3928166123957170e-01  -1.4735217627457184e-01  -1.5200053067382507e-01  -1.5222935590090109e-01  -1.4186013188527016e-01  -1.5113761603962611e-01  -1.3454802085000486e-01  -1.4883872200159587e-01  -1.5713474744516265e-01  -1.5933485143706483e-01  -1.6067677260125332e-01  -1.6678451204698885e-01  -1.5942438276615167e-01  -1.7023867415086347e-01  -1.5621127462327908e-01  -1.6935875954587779e-01  -1.7745698531990112e-01  -1.7786287256616384e-01  -1.8132803000039510e-01  -1.8205840566180806e-01  -1.7236570581872696e-01  -1.7484797365145557e-01  -1.8137518494565527e-01  -1.7111835085915938e-01  -1.7600137097431309e-01  -1.5892584043596406e-01  -1.7986093201454281e-01  -1.7465403608677532e-01  -1.6597213945066239e-01  -1.6588614246956346e-01  -1.5120112454148196e-01  -1.5366721278224907e-01  -1.6198586101649592e-01  -1.5247438548234304e-01  -1.7462951413406530e-01  -1.7507892990960489e-01  -1.4879241808468727e-01  -1.7244262723792966e-01  -1.6246506980401815e-01  -1.5668868009220283e-01  -1.5159552041983240e-01  -1.3812528805061686e-01  -1.4010685515795848e-01  -1.4822871218860406e-01  -1.4171967738662300e-01  -1.4683299087675411e-01  -1.4394636810291331e-01  -1.4747266657367797e-01  -1.4741548986909581e-01  -1.3438247232409450e-01  -1.4126927470120595e-01  -1.5438247729489168e-01  -1.4979533517381508e-01  -1.6014888067110561e-01  -1.5759156313707379e-01  -1.6689350999873351e-01  -1.6575093631929258e-01  -1.7391121464816592e-01  -1.7278649935138027e-01  -1.7987070481744916e-01  -1.7717773073672596e-01  -1.8298026812595891e-01  -1.7786144180063443e-01  -1.8216718325144271e-01  -1.7310909748717362e-01  -1.7566251236963176e-01  -1.6441220364643827e-01  -1.8051845261197572e-01  -1.7392536219198235e-01  -1.5661368244832519e-01  -1.7292868182128024e-01  -1.6170347495798701e-01  -1.6015566646965396e-01  -1.6937741428319750e-01  -1.5521990929679594e-01  -1.4346979798418030e-01  -1.5712544459650254e-01  -1.6361804256379461e-01  -1.5365902567054388e-01  -1.4708389078534986e-01  -1.3839806164134266e-01  -1.6172097288570214e-01  -1.5791834070932229e-01  -1.5048670103199757e-01  -1.5376255237968045e-01  -1.4927441700468580e-01  -1.5809349307683887e-01  -1.3500692643556084e-01  -1.1583210683722266e-01  -1.2778525600184443e-01  -1.1888861297701418e-01  -1.5106223688986808e-01  -1.3378939197315792e-01  -1.3867695019825788e-01  -1.6461711932605219e-01  -1.2796185227611639e-01  -1.3472814131536970e-01  -1.5422586466470981e-01  -1.2073694624604811e-01  -1.4646274757248862e-01  -1.3920967335336060e-01  -1.4948601708664877e-01  -1.2048944905287298e-01  -1.2102174103390452e-01  -1.2483573728559164e-01  -1.4614550518547667e-01  -1.2028530817327833e-01  -1.4888648383450911e-01  -1.5846259260404164e-01  -1.6428323366452424e-01  -1.1576492441888751e-01  -1.5351053390343028e-01  -1.4392183133529812e-01  -1.4330739714139193e-01  -8.1162347413440306e-02  -1.6419020883155758e-01  -1.1640671435198230e-01  -1.0292498158530365e-01  -1.5271210574253496e-01  -1.5130263193587942e-01  -1.5055022054000738e-01  -1.3338743998501937e-01  -1.4874427350425462e-01  -1.4645002297896867e-01  -1.1112311690986823e-01  -1.3896523991534462e-01  -1.5410552436150277e-01  -1.5558554070141864e-01  -1.5211034585462593e-01  -1.2333389135434286e-01  -1.6349938335438802e-01  -1.5121806109170582e-01  -1.4449649931572919e-01  -1.5391782881199742e-01  -8.3117936433552891e-02  -1.0657000223915652e-01  -1.4962625378834302e-01  -1.5906201568739592e-01  -1.6044410171600940e-01  -1.5698684661407944e-01  -1.5306328974782740e-01  -1.1413037565875929e-01  -1.3642036289997891e-01  -1.4434233768361673e-01  -1.4840480907983208e-01  -1.4163229434410132e-01  -1.5142165337332822e-01  -1.4737401068937817e-01  -1.2015984285431069e-01  -1.4409427448688827e-01  -1.1061198084820829e-01  -1.4383427947437596e-01  -1.4981168635518266e-01  -1.5723639800502315e-01  -1.3670255125275235e-01  -1.5211932984201107e-01  -1.6312750452997624e-01  -8.4900335216859801e-02  -9.1508490786623375e-02  -5.2017893843379445e-02  -1.3743761763984680e-01  -1.4290391673786845e-01  -1.2999083386396368e-01  -1.4770053499886918e-01  -1.5811274323746158e-01  -1.7422256376341855e-01  -1.6370237825392714e-01  -1.3802665192663963e-01  -1.4549627775621796e-01  -1.4401200737795181e-01  -1.5335712439143329e-01  -1.5117276984566710e-01  -1.6051945796672848e-01  -1.6892410932774418e-01  -1.4313152775883453e-01  -1.4995999862599987e-01  -1.0718202574735010e-01  -1.3205504359034886e-01