<?xml version="1.0"?>
<VTKFile type="UnstructuredGrid"  version="0.1"  >
<UnstructuredGrid>
<Piece  NumberOfPoints="1242" NumberOfCells="2386">
<Points>
<DataArray  type="Float64"  NumberOfComponents="3"  format="ascii">0 0 0  0 1 0  1 1 0  1 0 0  1.1 -0.1 0  -0.1 -0.1 0  1.1 1.1 0  -0.1 1.1 0  0.5009864254629053 0.5076888675719058 0  0.5948666708572693 0.729872016260635 0  0 0.9499999999997918 0  0 0.8999999999995836 0  0 0.8499999999996529 0  0 0.7999999999999998 0  0 0.7500000000003466 0  0 0.7000000000006934 0  0 0.6500000000010401 0  0 0.6000000000013869 0  0 0.5500000000017335 0  0 0.5000000000020587 0  0 0.4500000000018723 0  0 0.4000000000016644 0  0 0.3500000000014564 0  0 0.3000000000012483 0  0 0.2500000000010403 0  0 0.2000000000008322 0  0 0.1500000000006241 0  0 0.100000000000416 0  0 0.05000000000020799 0  0.04999999999989965 0 0  0.09999999999981467 0 0  0.1499999999997036 0 0  0.1999999999995579 0 0  0.2499999999994121 0 0  0.2999999999992664 0 0  0.3499999999991206 0 0  0.3999999999989749 0 0  0.4499999999988292 0 0  0.4999999999986943 0 0  0.5499999999988151 0 0  0.5999999999989468 0 0  0.6499999999990784 0 0  0.69999999999921 0 0  0.7499999999993417 0 0  0.7999999999994734 0 0  0.8499999999996051 0 0  0.8999999999997368 0 0  0.9499999999998684 0 0  1 0.04999999999989965 0  1 0.09999999999981467 0  1 0.1499999999997036 0  1 0.1999999999995579 0  1 0.2499999999994121 0  1 0.2999999999992664 0  1 0.3499999999991206 0  1 0.3999999999989749 0  1 0.4499999999988292 0  1 0.4999999999986943 0  1 0.5499999999988151 0  1 0.5999999999989468 0  1 0.6499999999990784 0  1 0.69999999999921 0  1 0.7499999999993417 0  1 0.7999999999994734 0  1 0.8499999999996051 0  1 0.8999999999997368 0  1 0.9499999999998684 0  0.9499999999997918 1 0  0.8999999999995836 1 0  0.8499999999996529 1 0  0.7999999999999998 1 0  0.7500000000003466 1 0  0.7000000000006934 1 0  0.6500000000010401 1 0  0.6000000000013869 1 0  0.5500000000017335 1 0  0.5000000000020587 1 0  0.4500000000018723 1 0  0.4000000000016644 1 0  0.3500000000014564 1 0  0.3000000000012483 1 0  0.2500000000010403 1 0  0.2000000000008322 1 0  0.1500000000006241 1 0  0.100000000000416 1 0  0.05000000000020799 1 0  -0.1 1.05000000000004 0  -0.1 1.000000000000079 0  -0.1 0.9500000000001624 0  -0.1 0.9000000000003032 0  -0.1 0.850000000000444 0  -0.1 0.8000000000005848 0  -0.1 0.7500000000007256 0  -0.1 0.7000000000008665 0  -0.1 0.6500000000010508 0  -0.1 0.6000000000012352 0  -0.1 0.5500000000014196 0  -0.1 0.500000000001539 0  -0.1 0.4500000000014195 0  -0.1 0.4000000000013 0  -0.1 0.3500000000011588 0  -0.1 0.3000000000010178 0  -0.1 0.2500000000008986 0  -0.1 0.2000000000007579 0  -0.1 0.1500000000006174 0  -0.1 0.1000000000005272 0  -0.1 0.05000000000040083 0  -0.1 2.671196597248127e-13 0  -0.1 -0.0499999999998666 0  -0.0500000000000906 -0.1 0  -1.730560139634463e-13 -0.1 0  0.04999999999975802 -0.1 0  0.09999999999961506 -0.1 0  0.1499999999994613 -0.1 0  0.199999999999302 -0.1 0  0.2499999999991446 -0.1 0  0.2999999999990088 -0.1 0  0.3499999999988296 -0.1 0  0.3999999999986936 -0.1 0  0.4499999999985143 -0.1 0  0.4999999999984002 -0.1 0  0.5499999999985247 -0.1 0  0.5999999999986493 -0.1 0  0.6499999999987955 -0.1 0  0.6999999999989417 -0.1 0  0.7499999999990659 -0.1 0  0.7999999999992116 -0.1 0  0.8499999999993573 -0.1 0  0.8999999999994526 -0.1 0  0.949999999999584 -0.1 0  0.9999999999997226 -0.1 0  1.049999999999861 -0.1 0  1.1 -0.0500000000000906 0  1.1 -1.730560139634463e-13 0  1.1 0.04999999999975802 0  1.1 0.09999999999961506 0  1.1 0.1499999999994613 0  1.1 0.199999999999302 0  1.1 0.2499999999991446 0  1.1 0.2999999999990088 0  1.1 0.3499999999988296 0  1.1 0.3999999999986936 0  1.1 0.4499999999985143 0  1.1 0.4999999999984002 0  1.1 0.5499999999985247 0  1.1 0.5999999999986493 0  1.1 0.6499999999987955 0  1.1 0.6999999999989417 0  1.1 0.7499999999990659 0  1.1 0.7999999999992116 0  1.1 0.8499999999993573 0  1.1 0.8999999999994526 0  1.1 0.949999999999584 0  1.1 0.9999999999997226 0  1.1 1.049999999999861 0  1.05000000000004 1.1 0  1.000000000000079 1.1 0  0.9500000000001624 1.1 0  0.9000000000003032 1.1 0  0.850000000000444 1.1 0  0.8000000000005848 1.1 0  0.7500000000007256 1.1 0  0.7000000000008665 1.1 0  0.6500000000010508 1.1 0  0.6000000000012352 1.1 0  0.5500000000014196 1.1 0  0.500000000001539 1.1 0  0.4500000000014195 1.1 0  0.4000000000013 1.1 0  0.3500000000011588 1.1 0  0.3000000000010178 1.1 0  0.2500000000008986 1.1 0  0.2000000000007579 1.1 0  0.1500000000006174 1.1 0  0.1000000000005272 1.1 0  0.05000000000040083 1.1 0  2.671196597248127e-13 1.1 0  -0.0499999999998666 1.1 0  0.6190043469438243 0.7185785807561977 0  0.6419904169005466 0.7043681484057721 0  0.6638504267967611 0.6874167496066693 0  0.6836306739990886 0.6678024968485717 0  0.7009896462478783 0.6462382019077481 0  0.7155352016016603 0.6231926561440632 0  0.7273315098305071 0.5991241173384261 0  0.7363610738901343 0.5745341576644695 0  0.7427038516593532 0.5497374309034267 0  0.7463952463027363 0.524875349202965 0  0.747385066585186 0.5002527576273654 0  0.746284867744983 0.4759733684009992 0  0.7428278416180901 0.4520427836022888 0  0.7371441159543392 0.4286941996992163 0  0.7295065471404847 0.4058021810845354 0  0.7191979816778095 0.3834449012658168 0  0.7063160305048665 0.3620085258620102 0  0.6909483847123437 0.3414308645108597 0  0.6731745663200794 0.3219415493010234 0  0.6529817115383129 0.3042198254210706 0  0.6307415232668813 0.2887656886126852 0  0.6067174567071421 0.2758478663866734 0  0.581422192528104 0.2657331159523966 0  0.5552823889585118 0.2585634300669653 0  0.528786775337064 0.2543993470871728 0  0.5025372453010702 0.2531352203525453 0  0.4771744586124505 0.2543662264510335 0  0.4534818750349827 0.2572645648578685 0  0.4308433784422816 0.261998664834138 0  0.4089873759213923 0.2689346111913883 0  0.3881252727036866 0.2780431513426138 0  0.3687374284977231 0.2890112592312983 0  0.350679146617055 0.3014795875746054 0  0.3339193896661631 0.3156664863024596 0  0.3180456070304672 0.3314323251521442 0  0.3033417953630654 0.3491550873532301 0  0.2899585615397149 0.3685718890757174 0  0.2781837256860617 0.3898719376787789 0  0.2680875251510413 0.4129554789852982 0  0.2601647112235894 0.4377866843172287 0  0.254986157104575 0.4640959563189793 0  0.2522799694064261 0.4913711197032631 0  0.2529187159738714 0.5190719328206117 0  0.2562668403730163 0.5464514026911291 0  0.2628022111904013 0.5734072026876964 0  0.2723243276151553 0.5993501741298328 0  0.2844458222754612 0.62374594109717 0  0.2987895920223831 0.6460390816546536 0  0.314883714775516 0.6661401789103639 0  0.3320934348443211 0.6839468223152877 0  0.3505077611482025 0.6995363094124452 0  0.3701130726655927 0.7129341495010847 0  0.3905029557499171 0.7242327831385743 0  0.4114674360728414 0.7333723695741954 0  0.4330123482757958 0.740442720034011 0  0.4550638082233698 0.7454018039262444 0  0.4772687273539323 0.7483457945085594 0  0.4998173094381215 0.7492304410938202 0  0.5229317436226175 0.7479447404365962 0  0.546580941676843 0.7443398473700763 0  0.5704346273230022 0.7383187054526146 0  0.2822511551471504 0.4386186606258475 0  0.3213360215100564 0.633128127734602 0  0.6443020124870666 0.6803234845209797 0  0.7110449430614876 0.5830732697673866 0  0.5610420963176092 0.7139447593488587 0  0.4917013699339157 0.7226139102649149 0  0.3107313593424447 0.3791096245162845 0  0.3570036715840492 0.3306530967301349 0  0.4108457079239163 0.2952601985100026 0  0.3741307684790355 0.681687719664967 0  0.6086212293177464 0.2989153263601663 0  0.4953727333589857 0.2742138052999991 0  0.6787756849337777 0.3617552589837009 0  0.710884399511588 0.4227677938965684 0  0.4295317448079312 0.7101604776216194 0  0.7255970654414212 0.5145949886016306 0  0.2831867871360019 0.5755614751438924 0  0.2699024766966384 0.5069367090714486 0  0.4512863422268291 0.280558747983711 0  0.7222171547974363 0.4689620269545306 0  0.6902216828874191 0.628116001454902 0  0.5437899390490897 0.277041998322368 0  0.6007922586720974 0.7049171760066331 0  0.6488730119560672 0.3260063795019865 0  0.3739465666666305 0.3169924448584533 0  0.3801949182787402 0.3457193550649237 0  0.3612591906857292 0.359746755149672 0  0.3844377502425735 0.3758228318336544 0  0.404248288726403 0.3599231461346608 0  0.4056265891360177 0.38859052006922 0  0.3889550612153672 0.4081386844971508 0  0.4311344327579843 0.3769470606394475 0  0.4216232363827276 0.4245454450472859 0  0.3920846931352119 0.4503111393860392 0  0.4606523824891258 0.4170876393990856 0  0.4723364305057816 0.3674082693042119 0  0.5035038219469099 0.4132999655257292 0  0.5177204195924566 0.3662302836378903 0  0.5477500390226805 0.4082174496053673 0  0.5642122792831473 0.3625329259685179 0  0.5958793555433075 0.4000552679657572 0  0.5787193082557669 0.4427533336825026 0  0.6304565320318058 0.4348649804390712 0  0.6092169537270108 0.474559359133825 0  0.6498973153508817 0.4664803438205982 0  0.640897665464537 0.5067741819248109 0  0.5948499366188078 0.5157397076550095 0  0.6280521053231918 0.5469262308611093 0  0.5815224767450837 0.5587954094425015 0  0.6134031428407581 0.589607120982539 0  0.566341284785038 0.6031001881386918 0  0.594056987848826 0.629265048672102 0  0.5598437514166414 0.6480842206611556 0  0.531816852386342 0.6228984785338827 0  0.6278586622275047 0.6211769205404873 0  0.5992405653691119 0.3697995647776899 0  0.3670169863746396 0.4262712278777067 0  0.3619414109289538 0.4638803757540369 0  0.3930493865389568 0.4947920661917247 0  0.3598309464900633 0.5120837837949335 0  0.3914375074141004 0.5393178854323305 0  0.3623737932592789 0.5569408980864684 0  0.3867645053861706 0.5873785070709369 0  0.3364591657485743 0.5364896347288634 0  0.420098955782041 0.5653590646252854 0  0.4151759739678621 0.6144082527837703 0  0.4571847357324391 0.5864882353703241 0  0.4433399043424605 0.6336309346885582 0  0.3335979037962694 0.4447261965653445 0  0.5352132575657162 0.342203872476966 0  0.6565680623122323 0
[...]
<PointData  Scalars="u"> 
<DataArray  type="Float64"  Name="u"  format="ascii">-6.7955157261334595e-18  -1.4488375643099466e-17  -1.7704246083159582e-17  -4.4176615413549655e-18  1.8759493854047386e-19  3.5921617198131057e-19  -3.1564874763739858e-19  7.6271158039445080e-19  1.4215888019948184e-01  -1.0564221256059286e-01  -9.5072066246839054e-18  1.1094749446802561e-17  5.3847512645356138e-18  -3.4635688738607394e-17  -7.8303435847694554e-18  -2.2605142004325430e-17  -1.9781044070485030e-18  5.3556207561881054e-17  -2.0439674203975688e-17  -2.0594451677712693e-17  2.9377358542520914e-17  -2.3236031979308393e-17  3.6529435191954808e-17  7.8004007124168593e-19  -5.7055918571813262e-17  -3.6682489971423983e-17  3.6946394400885044e-18  8.6149089323505480e-18  6.8631797343808045e-18  -5.4753115864536842e-18  -6.2259659240572111e-17  -1.9343990240941432e-17  1.7844030242548633e-17  -5.0330392356154184e-17  -4.9644329650366512e-17  -1.4275386663669907e-17  -1.1770574349522107e-16  -3.5597638166819170e-17  5.3438463951260713e-17  -4.5845010633194367e-17  -9.9229563778149945e-18  -5.7527926646455802e-17  -4.4891156457275066e-17  -1.8189490332678469e-17  -8.3351391321226396e-17  -2.0151650934407950e-18  -1.9901186886373143e-17  2.0423373696930720e-17  4.0512188630578882e-17  -1.0211461134545990e-16  -1.8637001954807481e-16  8.0373723153669259e-17  -4.5136176865966188e-18  -9.2527532622574709e-17  1.6306964159283777e-17  4.4738739318577358e-16  2.5117542951992956e-17  -2.5948975552252830e-16  1.3458620308745708e-16  -1.4791386178753805e-16  -1.3493810461904474e-17  -8.1592569434998009e-18  1.1597671051792201e-16  -1.2698432884025627e-16  -1.0127697466974861e-16  7.5364523374198059e-17  9.6133437783825630e-18  -8.4620155599282830e-17  -2.2484773885890755e-17  -2.7956675859689740e-17  1.0873557150193698e-16  1.4926571585270863e-16  -3.1483624583150800e-16  -3.1795237434425772e-17  -1.8960674717697973e-16  3.8489117569972619e-16  1.1759230985255116e-16  -2.0541076817308174e-16  1.9452964255321098e-16  -3.7182084610760512e-17  2.2699459640529583e-16  -1.2660724400861193e-16  -1.1948485552720643e-16  -2.1720830809095152e-16  -1.0857856402432888e-17  -8.0112552467771960e-19  -1.3951966962986593e-19  -1.8720731505278733e-18  -1.2216866277447941e-18  1.3857094497811938e-18  -9.3231980702107414e-19  9.9728394716982455e-19  -3.7488713069984906e-18  -8.8756914466493169e-18  2.5936482916703691e-18  3.7477829447579228e-18  -1.5501497742080443e-18  -8.0481609760563282e-19  1.3346395203705599e-18  2.9570912879696907e-19  4.2971684588032820e-18  -2.8282859488418539e-18  -6.9799227759449081e-18  -4.4318867509144502e-18  -8.9815275641071524e-19  1.4157131091813615e-18  4.6623035605409998e-19  -5.3187515878219698e-19  -2.6289605245788644e-19  -2.8615512568882961e-19  -2.3809712390781420e-19  -2.3571918462650016e-18  -7.4937105687039014e-18  -1.9962156460223351e-18  -1.1122966647264803e-18  -8.6191825672360490e-18  -7.4379397715828690e-18  -4.8779731815839597e-18  -1.4591154119188409e-17  -4.6445154032306473e-18  2.5449905529727809e-18  -2.8799210777738950e-18  -5.4472167800308805e-18  -8.0464923674313202e-18  -5.1960909333649180e-18  -5.0930876310149138e-18  -9.0566530813568387e-18  -4.1761411109208418e-18  -3.1080920595169891e-19  9.8377210792119477e-19  5.0938175724738745e-19  -5.5664139714694685e-19  3.0219668218592325e-19  -1.0722599824102555e-18  -4.1069018419087893e-18  -3.7170745173322187e-18  -4.2111401332473602e-18  -2.9604644787570603e-18  2.0140131422303114e-20  1.1822860781139112e-18  8.7540009639133827e-19  1.3698591374330692e-19  -4.2405347334485129e-18  -9.0000899071236638e-18  -8.1467380050604702e-18  -8.0207063539306890e-18  -3.3927510416532007e-18  -1.1008582966012712e-18  -4.8460932648344952e-18  -1.0974282500975255e-18  4.7569132494227570e-19  -3.3351312988110824e-19  4.4009224260680532e-19  1.1072842974980734e-18  -9.8692091403932686e-20  5.2372247311435352e-19  -5.6777129430696056e-20  -2.9365147089046169e-18  -3.5984214315234926e-18  -3.4129805985607069e-18  -2.5589285445882198e-18  8.0025273550760274e-19  -1.5896415269824672e-18  -5.0136250611352897e-18  -2.7516278149174292e-18  3.1046215193039343e-18  -4.0139584807213009e-18  -4.3209840454706988e-18  2.1938524002079665e-18  -4.3211777975337586e-18  -7.3130422192794784e-18  -2.5990107083954554e-18  -1.3007638145290214e-18  -3.7049143976075409e-18  -9.8200847457663198e-20  2.7566608590423116e-18  -4.4273020921038528e-19  -9.1301151098842088e-19  -1.0832972840325236e-01  -1.1037355663635784e-01  -1.1130095511605245e-01  -1.1156211988654655e-01  -1.1071582226241927e-01  -1.0899113406262291e-01  -1.0678447021162682e-01  -1.0467039821289972e-01  -1.0292036629737861e-01  -1.0157744667131932e-01  -1.0133394431478707e-01  -1.0174207604281185e-01  -1.0291384178739063e-01  -1.0471836663931658e-01  -1.0665366704966375e-01  -1.0911542450122669e-01  -1.1088634499848982e-01  -1.1196406405435601e-01  -1.1246658042242119e-01  -1.1195150393752681e-01  -1.1050756091309813e-01  -1.0834119339580403e-01  -1.0588440594027765e-01  -1.0378893756241694e-01  -1.0213269360307292e-01  -1.0134151327009941e-01  -1.0157137907811339e-01  -1.0288253536768931e-01  -1.0481229846974482e-01  -1.0696839594254823e-01  -1.0897060649061335e-01  -1.1062814333444676e-01  -1.1176717083187761e-01  -1.1215224430268686e-01  -1.1207353649968603e-01  -1.1126876356564594e-01  -1.0985388793303263e-01  -1.0796892940882793e-01  -1.0591366716240311e-01  -1.0397845182087570e-01  -1.0224726520794149e-01  -1.0130752066466195e-01  -1.0151964675611094e-01  -1.0241757735005244e-01  -1.0443779017326905e-01  -1.0661394368009361e-01  -1.0871037665515321e-01  -1.1025578082891462e-01  -1.1110850118166733e-01  -1.1118140968495158e-01  -1.1056779999041963e-01  -1.0921100979054672e-01  -1.0737251207301404e-01  -1.0556713511537782e-01  -1.0375079168711668e-01  -1.0215796184230327e-01  -1.0124225445909521e-01  -1.0087544696251116e-01  -1.0106627122216985e-01  -1.0197666415418413e-01  -1.0366586226270497e-01  -4.6807757376399792e-02  -4.4454312193214870e-02  -5.6076834751401038e-02  -4.8361816233794729e-02  -3.9955732666993489e-02  -3.8394922460905256e-02  -4.8006457421715408e-02  -4.4933633999908330e-02  -4.4902986888082405e-02  -4.1076931785892550e-02  -5.2860457383645372e-02  -4.5312223594507185e-02  -5.0704346785356770e-02  -4.5715336576159706e-02  -3.8841097471131437e-02  -4.5045034181740606e-02  -5.1026329618006218e-02  -4.9930802793583279e-02  -4.4901139749001479e-02  -4.3363775336445642e-02  -5.3801946538111295e-02  -4.7824149414123912e-02  -5.0218190702665533e-02  -5.5067760157906424e-02  -4.5225157875861795e-02  -7.0040833915405859e-03  -1.0035968827959551e-02  2.9744669270506927e-02  2.9921681828431565e-02  5.9261322924676549e-02  6.1730878442817674e-02  6.5677084253117676e-02  9.5771937820694833e-02  8.7125806827785673e-02  1.0895323509401747e-01  7.2199663984901644e-02  1.1259925166716633e-01  7.2566890279006410e-02  1.0035262504610330e-01  5.4246487518106602e-02  6.8458014130180295e-02  1.0506477766042041e-01  6.1012425787905333e-02  9.3443942196322571e-02  5.2383088804629746e-02  6.6723582234969145e-02  1.0632613242146337e-01  7.1252957019303578e-02  1.0334766034305154e-01  6.2953900025330536e-02  8.4941871845570144e-02  4.5130465011737175e-02  4.6197165688893385e-02  8.1238820513881746e-02  2.2059349101297268e-02  3.7724497915655603e-02  5.3138915748479211e-02  6.4701235853609193e-02  9.7706082386461696e-02  6.7321874574993029e-02  9.0861735922715695e-02  5.8420239520140270e-02  6.4680974721979451e-02  3.5312121702057345e-02  1.0135811388679006e-01  6.5908058831936192e-02  1.0704165808841921e-01  6.3376231022213375e-02  2.3654476430165081e-02  4.1351247852258473e-02  4.4478838237441268e-02  1.4086550334956835e-02  5.3906206673172141e-02  2.3310022538724766e-02  1.2357029562243285e-02  4.3470535685591366e-02  6.0615166594915823e-03  4.4344636020386529e-03  1.0982982732660591e-02  -1.1456873882178462e-02  -5.3950195208983982e-03  2.5384304108822083e-02  -2.2977105670330669e-03  8.2969534753545501e-03  -1.7185101293094727e-02  -1.7269407921357276e-02  6.4104326530944576e-03  6.9284133244363000e-02  1.0628460697906522e-01  2.8102825361277211e-02  1.8288308587906778e-02  -7.9090522399526079e-03  -2.8956332309682869e-03  2.0151485774783508e-02  7.0573597682166214e-03  3.2085032629761048e-02  -4.5933014020802382e-03  8.0933948565619892e-04  1.3170150869281057e-02  1.1719616809024629e-01  -2.1903791563460531e-02  7.7969076007769721e-03  3.0174148766661222e-02  4.6907878341572506e-02  6.3577195620721479e-03  4.6656138525475550e-03  2.9327013326750157e-02  -2.6948973415806530e-03  -6.3678985986267847e-03  -1.4883115344141696e-03  -1.3336310603804262e-02  -1.7243095599888968e-02  2.3448854769296784e-02  4.3054089166520131e-03  2.5497479922425400e-02  3.1057759708295013e-03  2.5158475672928775e-02  -1.6235599422498411e-02  4.0984564662774017e-02  -2.6206018852665592e-02  -1.2407272605984988e-02  -2.9807639079464206e-02  -8.6690108482197405e-03  1.2576744656604361e-01  1.2945899407842026e-01  -4.2849555706560634e-02  -3.8361491574654981e-02  -4.7872508795982850e-02  1.3026898387818517e-01  -4.6353365059719022e-02  2.3973760740249875e-02  -4.7325895938220433e-03  -5.0903682980495794e-02  -4.7668453352707398e-02  -4.5213022987792270e-02  -4.4210854599116389e-02  -4.9952681678244043e-02  -4.7327778635188326e-02  4.8623408339096431e-02  -2.1712583630494199e-02  -2.4310987211771426e-02  -4.5305117084428970e-02  -9.7300781625710587e-03  -4.5320511928452302e-02  -5.2375151276123820e-02  -4.3760397699766161e-02  9.5943325694028078e-04  -4.8916998001996538e-02  -3.5051462181419982e-02  -1.5749890710223480e-02  -4.0177909735777638e-02  -4.3425951705755868e-02  -1.3148885254277759e-02  -4.6992307418426783e-02  -5.1644009556013060e-02  -8.0261129037017646e-03  1.3306723699446604e-01  -5.2607591236093598e-02  1.1514461113043092e-01  -5.1969935386375746e-02  -4.5710479197725029e-02  -2.1531496044006716e-02  -1.4393345972898678e-02  -5.5459792571108536e-02  -5.3467494596210280e-02  -2.7550658905434795e-02  -5.3567173924509881e-02  -1.4108314319616981e-02  -5.4058308446793643e-02  4.3993798721489584e-02  1.2750083858677397e-01  1.1795762531440829e-01  -8.3090521247280238e-03  -1.5205729494582062e-02  -1.8206285950784391e-02  -5.3981447500507290e-02  -2.8202286463030291e-02  -1.9531217562866198e-02  -4.9425344738819488e-02  -2.9004001615017521e-02  -5.7562055496229836e-02  -2.8107849690725228e-02  -4.6690500307728026e-02  3.1031262136929617e-02  -9.8126900636380035e-03  -3.9466834893716517e-02  -5.1995068409473655e-02  -2.8465931784851076e-02  -4.8834005587971845e-02  -5.1955807000179807e-02  -4.8336303997210714e-02  1.2790530489418332e-02  -1.5903580848794251e-02  2.3081811606707983e-02  -6.0585186627224778e-02  -2.8736624182566034e-02  -1.6356154354647000e-02  1.3553517910914162e-01  -1.7256053513617482e-02  -2.0755410550297920e-02  -2.7705018137300277e-02  3.0802992926240263e-02  -1.3236550293993768e-02  -1.4944020145557461e-02  -2.5307594139802867e-03  3.1413052716118121e-03  -2.0004526112934386e-02  3.1868972449002712e-02  -2.8890274138531690e-02  -1.8292306126405995e-02  1.3965993878266391e-02  -1.8791689421933003e-02  9.2253726215583681e-03  3.3637208627659065e-02  8.4023326760505557e-02  1.5539615194830471e-02  -2.5668740677251774e-02  1.2274990303973105e-02  3.3071556004852197e-02  1.1858836723151541e-02  -2.0801385038529855e-02  1.3317797560393971e-01  3.5408454154022252e-02  2.9922602394911804e-02  2.8154549876973828e-02  -2.8493912644729221e-02  9.3998209768875133e-03  1.4531140078459943e-02  1.2194203427074778e-01  -2.9043113376829226e-02  -2.1802853990163455e-02  -3.7690392314095968e-03  3.0585553157554013e-02  3.1523493077046438e-02  -3.6978476596599905e-02  3.3952902861508275e-02  1.9521367786383401e-02  1.5334612246364451e-02  -4.2866224663671605e-03  -1.9827266451197433e-02  -3.0613639925105789e-02  4.4343490488620158e-02  2.3606938169949663e-02  -5.6918854091675353e-02  3.3426795289509724e-02  -5.7692741812114479e-02  -1.4812987507396075e-01  -1.4521403030364793e-01  -1.4682560040306505e-01  -1.4826558165243742e-01  -1.4740255216470691e-01  -1.4338399533248627e-01  -1.4423285531527635e-01  -1.4437368508762355e-01  -1.4496257701105741e-01  -1.4532378049290662e-01  -1.3639172341386216e-01  -1.4270430933785513e-01  -1.3824361556876474e-01  -1.4407708940727201e-01  -1.3573816179795575e-01  -4.6961521154381985e-02  -1.3791440100378280e-01  -4.6745384722407163e-02  -6.5339288497250583e-02  -1.3722137100497997e-01  -6.4924609219184720e-02  -1.3770430033751552e-01  -6.3536710974268454e-02  -5.9310372998807967e-02  -6.5807836620630694e-02  -1.3884370363970230e-01  -1.3480863441698121e-01  -6.9356303435455971e-02  -1.3706130043585793e-01  -1.3505590777296644e-01  -3.7388909586794590e-02  -1.3489175540413861e-01  -5.3470493293962210e-02  -5.9110062639010648e-02  -1.3367075722255958e-01  -6.2706736091991622e-02  -6.4793014109607500e-02  -8.5381961868643594e-02  -5.8154290879869640e-02  -6.3262649284744288e-02  -6.8883960404193229e-02  -6.4491345306275871e-02  -4.7165278899267964e-02  -8.4340507704466841e-02  -5.4132483503253476e-02  -4.4550867774073556e-02  -4.5662128538197018e-02  -5.2480812545993127e-02  -8.3095196482489267e-02  -5.3220898097332346e-02  -5.3900110364474410e-02  -5.8742197516161311e-02  -4.8321278525709575e-02  -1.3840544692017159e-01  -1.4585993593465521e-01  -1.4578071793478195e-01  -1.5170107759878040e-01  -1.5369106295604859e-01  -1.5084329524536272e-01  -1.5525678449763811e-01  -1.6004224693310948e-01  -1.5312392910385367e-01  -1.6035869152377866e-01  -1.6569498808180610e-01  -1.6779283167534986e-01  -1.7173397073092744e-01  -1.7452756360988958e-01  -1.7812633366741357e-01  -1.7886709492039979e-01  -1.8211934366851507e-01  -1.8006168929064953e-01  -1.8246336943507085e-01  -1.7627787734999908e-01  -1.7752646252135720e-01  -1.6938699678586944e-01  -1.8000038543440083e-01  -1.7484673148049529e-01  -1.6596848511394419e-01  -1.6299335257111447e-01  -1.6933200700912848e-01  -1.5854191984167271e-01  -1.4602072893830700e-01  -1.6264061112474434e-01  -1.5401257230425924e-01  -1.6116924652750275e-01  -1.6696520225398048e-01  -1.5004326855039096e-01  -1.5647573609132151e-01  -1.5019204155114807e-01  -1.5132108592972607e-01  -1.4734496826212964e-01  -1.3607060243314928e-01  -1.3549449847971559e-01  -1.4660402556887087e-01  -1.3716010605939008e-01  -1.4900404683981591e-01  -1.4110107943300856e-01  -1.5169696239208158e-01  -1.4582083502816279e-01  -1.5753395461716657e-01  -1.5185122925336864e-01  -1.6411543728810010e-01  -1.5772557520594060e-01  -1.6964269296761073e-01  -1.6231216978641197e-01  -1.7514928389849777e-01  -1.6488234879361899e-01  -1.7755838320082748e-01  -1.6446425761263062e-01  -1.7514267319772617e-01  -1.8274951591389912e-01  -1.7890389758963371e-01  -1.8263748187530793e-01  -1.7738179381164190e-01  -1.7899607671671322e-01  -1.7167817508742655e-01  -1.7295468902696556e-01  -1.6740642611799297e-01  -1.6294172563678821e-01  -1.6609392913861187e-01  -1.4334897589167708e-01  -1.5357591536839915e-01  -1.7404949823808447e-01  -1.1335522197634201e-01  -1.8070376864022641e-01  -1.6040812566219359e-01  -1.4141910738575647e-01  -1.3530797996138405e-01  -1.7634054351578463e-01  -1.2361754501213938e-01  -1.5748003170803590e-01  -1.5298905179722455e-01  -1.5688730450353455e-01  -1.6059388834391028e-01  -1.5568724345610505e-01  -1.4747356006921841e-01  -1.5052715726554569e-01  -1.2251050076554429e-01  -1.4994383296278144e-01  -1.7305894247503184e-01  -1.3386349980672377e-01  -1.3646385239840772e-01  -1.4461534160055226e-01  -1.5012167978349442e-01  -1.4999745748936585e-01  -1.3863708542888620e-01  -1.4841157180951237e-01  -1.3100377459955395e-01  -1.4587696784124005e-01  -1.5508315100356782e-01  -1.5712365374509979e-01  -1.5937022854369864e-01  -1.6537539416743294e-01  -1.5727195522678022e-01  -1.6892601747320149e-01  -1.5431370651211418e-01  -1.6829419072640259e-01  -1.7692101896992418e-01  -1.7756452812246776e-01  -1.8145775083595203e-01  -1.8247671378326857e-01  -1.7238555157750579e-01  -1.7555615884827130e-01  -1.8248026597700084e-01  -1.7252747079087022e-01  -1.7780833263081181e-01  -1.5990058944112809e-01  -1.8126327217049071e-01  -1.7675152690587262e-01  -1.6854898481093300e-01  -1.6878677294691885e-01  -1.5456705327017400e-01  -1.5733240505805551e-01  -1.6498786475840407e-01  -1.5630038371748747e-01  -1.7461881412711866e-01  -1.7550984601416172e-01  -1.4730147890999420e-01  -1.7394697920429625e-01  -1.6182853246650045e-01  -1.5961323279278658e-01  -1.5522910892978903e-01  -1.4267431696938032e-01  -1.4453492696637490e-01  -1.5166375835117102e-01  -1.4585014375247776e-01  -1.5012909426998627e-01  -1.4770162522318969e-01  -1.5049108401928415e-01  -1.5075024663647893e-01  -1.3832284295856875e-01  -1.4464550668279230e-01  -1.5708354888974316e-01  -1.5256751463418616e-01  -1.6243284551641421e-01  -1.5979469693512810e-01  -1.6875273508836292e-01  -1.6742674970091137e-01  -1.7532877023438123e-01  -1.7398922393474883e-01  -1.8085905043767816e-01  -1.7795663500885414e-01  -1.8354605825756415e-01  -1.7822112069080337e-01  -1.8228574578779216e-01  -1.7304321991212154e-01  -1.7534470130612406e-01  -1.6461555912061690e-01  -1.8042190240019770e-01  -1.7338403311981432e-01  -1.5812225694548149e-01  -1.7421065528359370e-01  -1.6099238038685187e-01  -1.5926074362769763e-01  -1.6867363259273704e-01  -1.5503847663974599e-01  -1.4354964990075508e-01  -1.5613558720826126e-01  -1.6279547039798178e-01  -1.5264192284784464e-01  -1.4753144359516646e-01  -1.3738954963060951e-01  -1.6364267229378771e-01  -1.5699643124688567e-01  -1.4944806038125630e-01  -1.5270050702073365e-01  -1.4820780426960156e-01  -1.5746499375433173e-01  -1.3759893977300436e-01  -1.2082429001130737e-01  -1.2752391497925716e-01  -1.2267171129989635e-01  -1.5268994499177804e-01  -1.3492647196921545e-01  -1.3923024383057950e-01  -1.6497125150118774e-01  -1.2566529340427424e-01  -1.3587558736848862e-01  -1.5221847165929256e-01  -1.2102836481360485e-01  -1.4502136369485069e-01  -1.3841253331819947e-01  -1.4707503566887567e-01  -1.1803845031861195e-01  -1.1866361851083629e-01  -1.2224936721230661e-01  -1.4895362407617213e-01  -1.2390640891291707e-01  -1.4733696194262785e-01  -1.6062185121550462e-01  -1.6482950977202029e-01  -1.1429961789178246e-01  -1.5310957675987988e-01  -1.4644932826613483e-01  -1.4563739464182548e-01  -7.9967012811299379e-02  -1.6428421287183781e-01  -1.1259533676882265e-01  -9.9001523104100222e-02  -1.5278482557663414e-01  -1.4998860109955242e-01  -1.4920662779212771e-01  -1.3238746270633187e-01  -1.4745938015603952e-01  -1.4542494876089765e-01  -1.1179824172461923e-01  -1.3745737980482045e-01  -1.5298754523566080e-01  -1.5454868609339301e-01  -1.5063668609179706e-01  -1.2091673351043050e-01  -1.6181804192050969e-01  -1.5319405862347887e-01  -1.4368471975982691e-01  -1.5440097511429104e-01  -8.0745140595946396e-02  -1.0449101011361239e-01  -1.4809119319104705e-01  -1.5771289996550977e-01  -1.5911016613783363e-01  -1.5576064474041562e-01  -1.5192157518414928e-01  -1.1237718003307771e-01  -1.3536720415196485e-01  -1.4677051594290491e-01  -1.5102384940542771e-01  -1.4344020166373209e-01  -1.5046233321764182e-01  -1.4676481619005968e-01  -1.2079426191692753e-01  -1.4495717088839341e-01  -1.1171505466014826e-01  -1.4419445828036506e-01  -1.5120403250443668e-01  -1.5870967636769331e-01  -1.3559326004306566e-01  -1.5046819517692583e-01  -1.6199110845033257e-01  -8.5323667272490619e-02  -8.9680817281511213e-02  -5.0684902205132436e-02  -1.3934413693260206e-01  -1.4119391998192996e-01  -1.2845191333871520e-01  -1.4648202952522546e-01  -1.5635898051763714e-01  -1.7526756595166601e-01  -1.6472662082358594e-01  -1.3764790990965359e-01  -1.4597213724327379e-01  -1.4247030723606358e-01  -1.5211483504674692e-01  -1.5009106355848414e-01  -1.5983539541588634e-01  -1.6801008152710523e-01  -1.4183282878496895e-01  -1.4905975638487082e-01  -1.0742341016477529e-01  -1.3200120970473964e