<?xml version="1.0"?>
<VTKFile type="UnstructuredGrid"  version="0.1"  >
<UnstructuredGrid>
<Piece  NumberOfPoints="1078" NumberOfCells="2058">
<Points>
<DataArray  type="Float64"  NumberOfComponents="3"  format="ascii">0 0 0  0 1 0  1 1 0  1 0 0  1.1 -0.1 0  -0.1 -0.1 0  1.1 1.1 0  -0.1 1.1 0  0.5442551206348247 0.5989060005389987 0  0 0.9499999999997918 0  0 0.8999999999995836 0  0 0.8499999999996529 0  0 0.7999999999999998 0  0 0.7500000000003466 0  0 0.7000000000006934 0  0 0.6500000000010401 0  0 0.6000000000013869 0  0 0.5500000000017335 0  0 0.5000000000020587 0  0 0.4500000000018723 0  0 0.4000000000016644 0  0 0.3500000000014564 0  0 0.3000000000012483 0  0 0.2500000000010403 0  0 0.2000000000008322 0  0 0.1500000000006241 0  0 0.100000000000416 0  0 0.05000000000020799 0  0.04999999999989965 0 0  0.09999999999981467 0 0  0.1499999999997036 0 0  0.1999999999995579 0 0  0.2499999999994121 0 0  0.2999999999992664 0 0  0.3499999999991206 0 0  0.3999999999989749 0 0  0.4499999999988292 0 0  0.4999999999986943 0 0  0.5499999999988151 0 0  0.5999999999989468 0 0  0.6499999999990784 0 0  0.69999999999921 0 0  0.7499999999993417 0 0  0.7999999999994734 0 0  0.8499999999996051 0 0  0.8999999999997368 0 0  0.9499999999998684 0 0  1 0.04999999999989965 0  1 0.09999999999981467 0  1 0.1499999999997036 0  1 0.1999999999995579 0  1 0.2499999999994121 0  1 0.2999999999992664 0  1 0.3499999999991206 0  1 0.3999999999989749 0  1 0.4499999999988292 0  1 0.4999999999986943 0  1 0.5499999999988151 0  1 0.5999999999989468 0  1 0.6499999999990784 0  1 0.69999999999921 0  1 0.7499999999993417 0  1 0.7999999999994734 0  1 0.8499999999996051 0  1 0.8999999999997368 0  1 0.9499999999998684 0  0.9499999999997918 1 0  0.8999999999995836 1 0  0.8499999999996529 1 0  0.7999999999999998 1 0  0.7500000000003466 1 0  0.7000000000006934 1 0  0.6500000000010401 1 0  0.6000000000013869 1 0  0.5500000000017335 1 0  0.5000000000020587 1 0  0.4500000000018723 1 0  0.4000000000016644 1 0  0.3500000000014564 1 0  0.3000000000012483 1 0  0.2500000000010403 1 0  0.2000000000008322 1 0  0.1500000000006241 1 0  0.100000000000416 1 0  0.05000000000020799 1 0  -0.1 1.05000000000004 0  -0.1 1.000000000000079 0  -0.1 0.9500000000001624 0  -0.1 0.9000000000003032 0  -0.1 0.850000000000444 0  -0.1 0.8000000000005848 0  -0.1 0.7500000000007256 0  -0.1 0.7000000000008665 0  -0.1 0.6500000000010508 0  -0.1 0.6000000000012352 0  -0.1 0.5500000000014196 0  -0.1 0.500000000001539 0  -0.1 0.4500000000014195 0  -0.1 0.4000000000013 0  -0.1 0.3500000000011588 0  -0.1 0.3000000000010178 0  -0.1 0.2500000000008986 0  -0.1 0.2000000000007579 0  -0.1 0.1500000000006174 0  -0.1 0.1000000000005272 0  -0.1 0.05000000000040083 0  -0.1 2.671196597248127e-13 0  -0.1 -0.0499999999998666 0  -0.0500000000000906 -0.1 0  -1.730560139634463e-13 -0.1 0  0.04999999999975802 -0.1 0  0.09999999999961506 -0.1 0  0.1499999999994613 -0.1 0  0.199999999999302 -0.1 0  0.2499999999991446 -0.1 0  0.2999999999990088 -0.1 0  0.3499999999988296 -0.1 0  0.3999999999986936 -0.1 0  0.4499999999985143 -0.1 0  0.4999999999984002 -0.1 0  0.5499999999985247 -0.1 0  0.5999999999986493 -0.1 0  0.6499999999987955 -0.1 0  0.6999999999989417 -0.1 0  0.7499999999990659 -0.1 0  0.7999999999992116 -0.1 0  0.8499999999993573 -0.1 0  0.8999999999994526 -0.1 0  0.949999999999584 -0.1 0  0.9999999999997226 -0.1 0  1.049999999999861 -0.1 0  1.1 -0.0500000000000906 0  1.1 -1.730560139634463e-13 0  1.1 0.04999999999975802 0  1.1 0.09999999999961506 0  1.1 0.1499999999994613 0  1.1 0.199999999999302 0  1.1 0.2499999999991446 0  1.1 0.2999999999990088 0  1.1 0.3499999999988296 0  1.1 0.3999999999986936 0  1.1 0.4499999999985143 0  1.1 0.4999999999984002 0  1.1 0.5499999999985247 0  1.1 0.5999999999986493 0  1.1 0.6499999999987955 0  1.1 0.6999999999989417 0  1.1 0.7499999999990659 0  1.1 0.7999999999992116 0  1.1 0.8499999999993573 0  1.1 0.8999999999994526 0  1.1 0.949999999999584 0  1.1 0.9999999999997226 0  1.1 1.049999999999861 0  1.05000000000004 1.1 0  1.000000000000079 1.1 0  0.9500000000001624 1.1 0  0.9000000000003032 1.1 0  0.850000000000444 1.1 0  0.8000000000005848 1.1 0  0.7500000000007256 1.1 0  0.7000000000008665 1.1 0  0.6500000000010508 1.1 0  0.6000000000012352 1.1 0  0.5500000000014196 1.1 0  0.500000000001539 1.1 0  0.4500000000014195 1.1 0  0.4000000000013 1.1 0  0.3500000000011588 1.1 0  0.3000000000010178 1.1 0  0.2500000000008986 1.1 0  0.2000000000007579 1.1 0  0.1500000000006174 1.1 0  0.1000000000005272 1.1 0  0.05000000000040083 1.1 0  2.671196597248127e-13 1.1 0  -0.0499999999998666 1.1 0  0.5761091336220041 0.5927347636407783 0  0.6040231677335598 0.5726525275755925 0  0.6145568643777966 0.5400457119087586 0  0.6165713818950386 0.507593347053621 0  0.6154677618168957 0.4756107935716095 0  0.6112846043735906 0.4439671660476915 0  0.6037789637802949 0.4125400435281386 0  0.5922561176925418 0.3815382848074693 0  0.574335528565795 0.3524926089264375 0  0.5465076192897833 0.3323313452475993 0  0.5146294011933322 0.3311956835038031 0  0.4853354164140595 0.3388432555879722 0  0.4579729333912712 0.349412342674416 0  0.4317104806773815 0.3616619113257853 0  0.4062806555697668 0.3749806862892195 0  0.3815097795437587 0.389107759997592 0  0.3572426045600309 0.4038746801183077 0  0.3335519421851207 0.4193560485234915 0  0.3104402201758791 0.4356164385482563 0  0.2880134428531246 0.4527807058973101 0  0.266823844827742 0.471459006219887 0  0.2490895362504555 0.4938057245583616 0  0.2545900961344845 0.5212711111155306 0  0.2808495465246452 0.5396052639309834 0  0.3088734757484133 0.553159037697504 0  0.3372884014878359 0.5643756668845497 0  0.3659350472445451 0.5739410847176925 0  0.3947843613686422 0.5820940582691488 0  0.4238668772813001 0.5888533837226866 0  0.4532694762814376 0.5941635522329557 0  0.4830242228784065 0.5979230810526566 0  0.513283889967029 0.5997957401518789 0  0.5853783607069831 0.4624715475904506 0  0.4331990529311056 0.3959899034585045 0  0.4751397870169485 0.5647283513728328 0  0.3602265858906801 0.4365788838001596 0  0.4113620283905944 0.5565573839043377 0  0.4864041605213398 0.3734374632463872 0  0.5314009641201846 0.5686812599521305 0  0.3550687305467856 0.5410668584628754 0  0.5709241438574656 0.4025968334033984 0  0.3155870034847114 0.468868077576239 0  0.5859721811189358 0.5241351743278547 0  0.5395721293175222 0.3580586027199474 0  0.3009195457582221 0.5193758210674706 0  0.274699595786451 0.5050297996188768 0  0.5816804793955236 0.5567611474435195 0  0.5526207536651785 0.5414217818850104 0  0.5605664751455716 0.50618122671674 0  0.530843844927352 0.517956123740769 0  0.5353873174813237 0.4857543016143629 0  0.5063149297182098 0.4964640142528213 0  0.5107565698470815 0.4633173606724745 0  0.4817176283035611 0.4740614100530013 0  0.485391582377223 0.4409423457508367 0  0.4568519217909374 0.4512486754669776 0  0.4531350739921977 0.4846126867690604 0  0.4286970557178744 0.4613092549404001 0  0.5144105517164406 0.4304469394227349 0  0.4252807490010228 0.494403245446246 0  0.4021965587067068 0.4713218950583972 0  0.3990828554229228 0.5028489311586269 0  0.4485363613121884 0.5183029982104743 0  0.4061775844700212 0.4391228453580542 0  0.3762216054031646 0.4807691461250116 0  0.4986585126363592 0.5325545460236606 0  0.4874730934123827 0.4079522612891078 0  0.513901290975291 0.3974542165132881 0  0.5386154571352106 0.4544376820494618 0  0.4772927860545654 0.507574245075312 0  0.5466212116115323 0.4228190906682451 0  0.4594003205087607 0.4184607267368839 0  0.4321268880645581 0.4288101014182251 0  0.4437127372428361 0.5549378425614522 0  0.3830992239514494 0.5497358605172448 0  0.5040547335275197 0.5679647800109759 0  0.3369554816772445 0.4513791888474021 0  0.3460032863328048 0.4843481080330987 0  0.4594617848884009 0.3845266847563916 0  0.3721271041714566 0.5149490031925755 0  0.3278265603252464 0.5321875086246337 0  0.2945079264757067 0.4863343806060954 0  0.4069540506888001 0.4077200965210331 0  0.5804129374162761 0.432244817530525 0  0.5878007057108849 0.4924709807125801 0  0.4225251396981099 0.5260297646441089 0  0.3199857622818215 0.5007966246338297 0  0.5640371737950811 0.3775491758769125 0  0.3827636326204881 0.4209676062226658 0  0.5138113052431265 0.3654079129847047 0  0.4701307135149648 0.5355211262067432 0  0.5421710667361 0.3900556661094141 0  0.5621233398225478 0.47601589148191 0  0.3442841662154706 0.5147084441633107 0  0.3818849506594957 0.4509861037122945 0  0.5226218348147847 0.5446020718869311 0  0.5565593283112915 0.5720627098176163 0  0.397709107429803 0.5300606599664232 0  0.5627038169260543 0.4496278511101172 0  0.3580844675828872 0.4612313916674594 0  0.6126715941795925 0.3911743364232153 0  0.6332980322313424 0.4910837504418117 0  0.3752800769201876 0.5947411119700022 0  0.5583367517140225 0.6127610971244821 0  0.9933256777497323 0.712179613008594 0  0.6538595559548998 0.9944083475544312 0  0.4638977930306188 0.6140482685610005 0  0.9976288529471539 0.5459139170656536 0  0.9865207603862907 0.2804779487093596 0  0.2921415508934805 0.9818204539177839 0  0.3583632901340259 0.3784014513712303 0  0.4347073669053467 0.3361739881759851 0  0.4495391984518568 0.9916815921526188 0  0.2893226872919992 0.5619838034255811 0  0.06845403976909845 0.7573501034051675 0  0.7118875565109672 0.05543296267180406 0  0.2855304117819115 0.4265681755484382 0  0.6258343144135406 0.5577831608120218 0  0.8103469881674822 0.9931757955632063 0  0.2515287612650561 0.06141500313492188 0  0.07292332263546157 0.2511534553956841 0  0.2444074280079515 0.4657881634344682 0  0.5655906072718297 0.0634406005659759 0  0.4108617836418129 0.06116788464882487 0  0.8528778083616834 0.04861636222478494 0  0.2327853552437663 0.5082295311604847 0  0.4946070211628632 0.3183667937001199 0  0.07058966884776267 0.6045617812568567 0  0.9952778923655099 0.8575840850451666 0  0.07049141130801932 0.3498062212850496 0  0.6173015751840736 0.5852090023065016 0  0.6396609010743249 0.5727043369652515 0  0.632
[...]
<PointData  Scalars="v"> 
<DataArray  type="Float64"  Name="v"  format="ascii">0.0000000000000000e+00  6.0750571552691194e-20  4.5960762683935458e-20  3.5163657121637496e-20  -1.5371733077432536e-21  -2.6023868750860214e-22  -1.7907638724167140e-21  -2.6708613977782085e-21  2.2345830234727887e-02  5.5989015784842820e-20  1.8933953305381968e-20  3.0370632299382659e-19  7.0694801345359069e-19  -5.2454858610641931e-19  0.0000000000000000e+00  8.2043063415871185e-19  1.5802402752529743e-18  7.9452976266281587e-19  8.0665321367456150e-20  2.9240439944754492e-18  1.1446206879671190e-18  7.4096255100850991e-19  9.8741628215129442e-19  -6.8708491738557317e-20  -1.2904033640744437e-19  -1.2166047815738509e-19  1.7119274603711360e-19  1.7990197278643919e-20  -6.6518366408646895e-20  0.0000000000000000e+00  -3.7179297313110739e-19  6.4100102296925844e-19  2.2978799507627305e-19  2.5762271109209146e-19  2.1143416847946866e-18  3.9266977551445578e-19  -3.0955226818992682e-19  4.5848748069025077e-19  -2.9262402767661095e-19  3.7122566569467680e-19  -6.0322684678787728e-19  -8.8586116612796621e-19  -5.8832075898506048e-19  2.4811313549570893e-19  2.1904259173991824e-19  -2.1570248950562128e-19  -1.4562490516957694e-19  1.3011459870741370e-19  8.7178548154517830e-20  1.6810041197498280e-19  4.3831050630310849e-20  -4.1647077496189687e-19  2.5562450588974240e-19  -1.6248458635912078e-19  3.8411668625461915e-19  5.6443830008518637e-19  1.1395586754357023e-19  -1.2974613940683916e-19  -2.2175286352477575e-20  -1.9923946433035782e-20  -2.1046420586077624e-19  5.9451780327214064e-20  -1.4762533185742544e-19  1.6476172386003905e-19  -6.6687842791013734e-20  -5.2537765839151838e-20  5.6593100975667026e-20  -5.3927853916461381e-20  2.4373640279800414e-19  5.6581863991091711e-20  -5.4753383786924975e-20  4.0559373628890177e-19  -6.5776204276060001e-20  2.8902587585021501e-19  5.4546981827195649e-19  6.7119792299708332e-20  2.4492465054940557e-19  2.2418647115167137e-19  -8.5394369956822328e-20  4.8007632547960345e-20  1.9646549731664304e-21  -5.9438932372503598e-20  2.2229337502064036e-19  9.6915537876749723e-20  -1.5187017134331707e-20  3.7069937969927531e-22  9.2624051909260827e-21  2.5816968894351508e-21  1.2314136251022497e-20  5.8677067038337518e-20  6.0419225564379293e-20  -2.2967668486330979e-20  -8.0614911880679188e-20  1.3545754619408253e-19  2.1853241037499561e-19  7.4978614301662005e-20  9.3049103374590862e-20  3.2520337911054117e-19  2.1446093421116264e-19  1.1440106130431690e-19  1.7972967274793013e-19  1.1881987549642157e-21  -2.9025784514827262e-20  -6.3312625806849310e-21  1.5134863838348518e-20  3.8953666986621064e-21  -7.8073130496710554e-22  -1.1628278839163798e-22  4.9319766653969590e-22  1.4977373415415015e-21  1.2239542005445164e-22  -2.5712167430919753e-20  -2.8321365093833309e-21  1.5362659618010832e-20  -5.2507228204878293e-21  6.9844022452842051e-20  2.0906162560935149e-19  9.5726024927319569e-20  -1.8184150223703809e-20  -9.2126968566163384e-21  -9.2234329005106224e-21  1.7355161321651609e-20  -6.7057797889613860e-20  -1.2723426795475972e-19  -5.9608529390345607e-20  2.0473682763083248e-20  3.1215552142973758e-20  -2.7417686647046827e-20  -1.7410846405967631e-20  1.3886295845103263e-21  2.6637945346456526e-21  -1.1580753044714419e-21  7.0095595459237807e-21  1.4406711231810931e-20  1.5309167121267731e-20  2.8913812282953004e-20  -1.0125801645915098e-20  -2.6909584676728841e-20  -1.1291199364927174e-20  -2.6846856573506068e-21  4.7347028418587243e-20  7.7870457679137895e-20  1.0288420429848297e-20  -2.0203843038125292e-20  1.9782513507844763e-21  -5.5449518458721766e-21  -1.8823563800891592e-20  -8.4857303172739825e-21  -7.7944611052384791e-22  1.0414098501554132e-20  -1.7940803578617654e-21  -8.2459432425404283e-21  4.5191615929294450e-21  1.6385272980954275e-21  -3.9943506808587159e-22  8.3496581927090911e-21  2.3569359779340481e-21  2.4408841724082442e-21  2.8194882302355792e-20  -4.9118075910900223e-21  6.5515256263610514e-21  3.4674722818904454e-20  9.2038542615853443e-21  3.8790140063701715e-20  6.4718029200132289e-20  2.3415028732569172e-20  3.3086782045466880e-20  1.7307315232959108e-20  -1.4070257971042528e-20  5.1374405932178846e-21  -1.9927672444809273e-21  -6.0114755026611777e-21  2.9143299500711104e-20  1.5236937984532212e-20  8.5824243795213969e-23  4.4555353675827446e-21  2.4592248941599126e-21  2.2087664919467745e-02  2.1884097147555098e-02  2.1957998180169344e-02  2.1994371036827030e-02  2.1858858559004872e-02  2.1538685409968075e-02  2.1039231454366945e-02  2.0362848022723715e-02  1.9589476067086199e-02  1.9000483553929748e-02  1.8969384977748856e-02  1.9151714925553072e-02  1.9277647681725213e-02  1.9274122734086969e-02  1.9126561005372640e-02  1.8817420307564704e-02  1.8350507689105691e-02  1.7732557489291426e-02  1.6979795354899428e-02  1.6113739347841664e-02  1.5195350304666504e-02  1.4415924966831698e-02  1.4826733787495227e-02  1.6273993889461665e-02  1.7661988418752501e-02  1.8908301105489640e-02  1.9983595558347847e-02  2.0875512379137477e-02  2.1577920910538315e-02  2.2078188577100779e-02  2.2370451965301345e-02  2.2469332851934878e-02  2.3087290552552615e-02  2.1273981615416576e-02  2.3577557014551637e-02  1.9940511267026641e-02  2.2359967991321703e-02  2.1312101088395860e-02  2.3650795761104411e-02  2.0435845375413104e-02  2.2011386438580215e-02  1.8344994234576448e-02  2.3369020789031990e-02  2.0731035318085796e-02  1.7833256147999670e-02  1.6410784143309921e-02  2.3148201292294748e-02  2.3858529376147582e-02  2.3936605980852288e-02  2.4302994135957681e-02  2.4215006058539348e-02  2.4401963727003324e-02  2.4075367650638415e-02  2.4052575303193380e-02  2.3543657217113302e-02  2.3356078193436138e-02  2.3754894931241114e-02  2.2891470102612051e-02  2.3420873795725116e-02  2.3159661736099693e-02  2.2224423884348487e-02  2.2351223376479559e-02  2.3703850229868696e-02  2.1735169633567995e-02  2.1347624869541365e-02  2.4244602091653078e-02  2.2601293011728814e-02  2.2344467080285851e-02  2.3775934565125442e-02  2.4203389717916492e-02  2.2976096939751414e-02  2.2551553594605853e-02  2.2247156509925640e-02  2.3232887052519278e-02  2.1486588528780104e-02  2.3720644181085337e-02  1.9180183441410880e-02  2.0011875304786375e-02  2.1400311953716829e-02  2.1318365510277788e-02  1.9202522659999482e-02  1.7390510303628783e-02  2.0928005237686682e-02  2.2640898102864095e-02  2.3321124750365154e-02  2.3012231786709938e-02  1.8787323703984414e-02  2.1249468965598508e-02  2.0471954211636490e-02  2.1106841837833290e-02  2.3926885771358167e-02  2.1950907704997448e-02  2.3738565680275228e-02  2.0041266734565640e-02  2.1107575861743100e-02  2.4081563805216741e-02  2.3320551962979580e-02  2.2188495954553085e-02  2.3332954362776794e-02  2.0293872986973570e-02  2.0011349223870444e-02  2.1214948992026052e-02  1.9786790902304837e-02  2.1628097079215331e-02  3.6686522699247150e-04  3.4374269594289019e-04  2.1532617866147113e-02  1.6488293401551444e-04  7.0377007295327942e-04  9.6943898389920775e-04  1.7648886504906446e-02  1.8304714120027023e-02  5.6842014255972502e-04  1.6474929400811508e-02  3.0406279891500338e-03  2.8912803572905422e-03  1.5647438432523281e-02  2.1257339047041936e-02  2.5911682822506101e-04  2.6962030439181047e-03  3.1320698919559270e-03  1.4022936870943999e-02  4.0733903299545104e-03  3.7575343361919509e-03  1.4366605507230836e-03  1.3612011199596192e-02  1.8180620206879980e-02  4.2476206011205124e-03  1.3886299468207869e-04  3.8552042390184015e-03  2.1175591767670390e-02  2.0868478389547231e-02  2.0680789590345496e-02  2.0207447818040600e-02  1.9916015915435070e-02  1.9293005825882732e-02  1.8855099271734233e-02  1.8107303984827933e-02  1.7503009647629780e-02  1.8215447337262942e-02  1.8433096320405112e-02  1.6705135864280615e-02  1.7272744604419660e-02  1.6453833633504920e-02  1.5708202343843881e-02  1.6068897326657363e-02  1.4472245534724251e-02  1.4054763210972567e-02  1.4649278635671619e-02  1.6173833618383201e-02  1.4544905055826568e-02  1.6000796134944088e-02  1.4190201982671305e-02  1.5560920009532164e-02  1.3627488301308152e-02  1.4908224378049654e-02  1.2782474168697142e-02  1.2298634227753159e-02  1.2870503261866268e-02  1.4020179069251537e-02  1.2699037336779634e-02  1.0977236859449013e-02  1.0455389298069381e-02  1.1916727364797647e-02  1.2917017495221140e-02  9.1209303267678222e-03  8.5929669719306493e-03  9.6900316671377149e-03  1.4932281166716617e-02  1.3675250849896965e-02  1.1671448766510479e-02  1.2274192523425433e-02  1.0311385809638101e-02  7.7933167888105922e-03  8.6362456502329689e-03  1.4126250162854485e-02  1.2565700558819641e-02  9.4054114762431047e-03  1.6774415400094164e-02  1.4221906097516382e-02  1.2501452222807671e-02  1.0679469290963021e-02  6.7642258896402716e-03  1.4921512843477053e-03  5.9797267219429059e-03  4.5545455236869966e-04  7.5199481887031671e-05  5.2249020783432995e-04  7.2166442523990287e-04  1.5681167679818933e-02  1.3963813389391577e-02  1.2862255239762539e-02  1.3117722958187512e-02  1.1792128491743907e-02  1.1555039240207881e-02  1.1928257758043974e-02  2.0456636743269786e-02  7.5660788061859717e-03  1.0881787528056937e-02  9.6967712440096544e-03  2.0014985525138936e-03  1.0634063074220204e-02  7.5765123169998280e-03  1.3954388190575862e-02  1.3344750448738792e-02  1.1992215791313543e-02  5.0419508093387088e-03  9.0520560646892723e-03  1.7530692385517705e-02  1.0324598514429415e-02  1.0353346960130341e-02  1.0927262123348798e-02  9.3524333475441934e-03  7.3323070451164962e-03  7.7244090995345887e-03  9.7480675661116567e-03  7.9595442776459521e-03  9.9815274943568007e-03  8.0594691853299334e-03  1.0061090931446559e-02  7.9509440833483349e-03  9.9305774472495285e-03  7.7352052788550061e-03  9.6199279000913109e-03  1.1802235544980196e-02  1.1396807445611310e-02  9.2342218116929064e-03  1.0855821917887004e-02  1.2965032635613431e-02  1.2307009863832829e-02  1.0190167956952947e-02  1.1465875906026539e-02  9.3989043693528639e-03  1.0416943830461977e-02  1.2455759455549668e-02  8.5200818365175623e-03  1.1177311983865200e-02  1.8428041662110980e-02  1.3104285784165514e-02  1.4646125356900941e-02  1.1621362712501122e-02  1.3407931769490126e-02  1.1708455999988895e-02  1.3358032175815004e-02  9.8829154735129762e-03  8.1213300089823109e-03  1.5243870406911485e-02  1.1436862950407757e-02  1.3258275598044232e-02  8.3712070614288207e-03  7.3867635015741158e-03  5.9367040688578804e-03  1.8033916979477355e-04  4.2939912104922821e-03  3.4986920073186950e-03  1.1985403177093836e-02  1.7958735633889281e-02  1.7657861639901844e-02  1.7098490808024325e-02  1.8087169096292582e-02  3.9394066738206134e-03  5.7939278542846612e-03  1.1208443752883749e-02  9.6833093621799728e-03  1.0775128629134656e-02  2.0328114390697070e-02  5.5657154249517653e-03  9.4533481569534800e-03  7.3712916327655859e-03  8.5224910154901804e-03  9.2671925742803772e-03  8.6808875878551500e-03  1.0891866185059022e-02  1.2307153322436672e-02  1.0163695582515798e-02  6.8669543702665654e-03  5.7523642841639227e-03  5.4778355279317117e-03  7.7916789996983664e-03  1.8239398968233900e-03  7.8352530740214144e-03  1.0388476769924193e-02  8.9501017371501016e-03  1.0579121859129759e-02  1.3435717213211429e-02  1.7091971986160515e-02  5.4155285773830469e-03  7.1864964420017274e-03  7.3911554442150033e-03  5.1620235576487032e-03  2.8269040482653287e-03  3.2786585830302528e-03  2.2495046753088221e-03  1.8538385926408829e-02  5.6267972635126685e-03  5.7174819034907162e-03  1.0384364194711837e-02  1.4320413355255114e-02  1.4948538504718265e-02  1.6180914821819103e-02  1.6724083046757317e-02  1.7825519350985440e-02  1.8255183024808254e-02  1.7098736037334337e-02  1.9197958003197242e-02  1.8664517171299740e-02  1.9796375078973735e-02  1.9189742546482633e-02  1.7943916146554488e-02  1.8483848405392394e-02  9.9665694994154220e-03  1.1333347658830340e-02  8.4671559644497359e-03  4.8652284921898124e-04  6.2384976806698230e-04  1.7525437112804316e-02  1.3442713300747630e-02  1.3494629057576210e-02  1.2455638068707402e-02  1.0255870387402046e-02  1.1329116190886241e-02  1.3419120332238754e-02  1.2225385131352249e-02  1.4512200139540372e-02  1.2983894876852375e-02  1.4889623272260098e-02  1.3407250253865586e-02  1.1463926814987212e-02  1.1825485245787894e-02  1.3637725805465723e-02  1.1962666784865243e-02  1.3577122143756809e-02  1.1813229805195174e-02  1.3211215549681340e-02  1.1352583351984262e-02  9.9689175623098210e-03  1.2544954830714151e-02  1.0587096361098690e-02  9.7680187561391980e-03  1.1571107246129584e-02  9.5336782283573264e-03  8.6837966022388115e-03  1.5492464214800307e-02  1.4384521917178213e-02  9.8727341536364172e-03  1.8614450047161207e-02  7.4418330294970976e-03  3.5454982130128168e-03  3.7716706245728392e-03  3.8891552634472393e-03  1.0360803353752591e-02  1.2566443088140410e-02  8.1172338164347477e-03  9.5783446908475206e-03  8.2738438338299612e-03  4.4724313439957726e-03  1.7188557611534705e-02  1.6140909905500572e-02  1.6416538159783060e-02  2.0075598393264008e-02  1.9494819428158113e-02  4.1408534461634229e-03  2.2993639335591497e-03  1.7774667448365890e-02  1.3646468517932307e-04  7.3911663982573015e-03  6.2099430687171586e-03  5.1819248382677669e-03  4.1619690050861561e-03  1.2228546646875784e-02  1.6373228384328139e-02  9.2226579257643996e-03  7.4499685757924696e-03  8.0150473927394737e-03  4.2272261258497097e-03  4.1816287958138468e-03  2.9652817935770549e-03  2.6812266256475434e-03  2.6470150524975119e-03  1.9227910153507334e-03  2.1095284798602499e-03  3.6275765704113093e-03  3.3251692667497410e-03  5.2051915856346958e-03  3.0412927764447524e-03  4.8179407750205492e-03  2.7328329455433660e-03  4.4201989855593539e-03  1.4657309438020365e-02  1.4728131095736582e-02  1.3375964862690529e-02  1.5926496712190021e-02  1.5828631345257232e-02  1.7096060775856604e-02  1.6883423764777063e-02  1.8086374013133979e-02  1.7806916216740423e-02  1.8971554094224057e-02  1.8530412162820913e-02  1.9690624370163636e-02  1.9201544815899949e-02  2.0254471476241778e-02  1.9599070267517532e-02  2.0687734884606259e-02  1.9769172194508095e-02  2.0606761731191768e-02  1.9619854574592449e-02  2.0442700878705110e-02  1.8566007769232114e-02  2.1169318995208197e-02  2.0952125304647688e-02  2.0119352842834753e-02  2.0620273754427924e-02  6.9498283938906110e-03  4.2353973509606591e-03  9.1433736879057096e-03  6.7439064921906346e-03  2.0548238292764257e-02  1.7471462159073307e-02  8.5441308981616237e-03  8.5584177010947955e-03  2.7269068949064548e-03  1.2274100513690045e-02  1.6635844900477821e-02  5.9198158203005290e-03  6.3599844782993688e-03  1.6422460002667717e-02  1.7297537763108030e-02  8.8424760095105488e-03  1.0117504378255780e-02  1.8086598614364062e-02  1.2501320840784551e-03  8.4018020215147343e-03  3.8470682611926607e-03  9.8041639597401748e-04  2.1280175483823511e-02  1.1276530372746501e-03  1.6491939205481445e-02  5.7777925351590511e-03  6.3688468175858636e-03  8.3068731589975315e-03  6.5947408197090966e-03  4.5030861512412807e-03  2.0559273319048325e-02  5.5312726350350803e-03  1.9401676427013098e-02  1.7960779000257342e-02  2.1388227812111929e-02  1.5845372454251255e-02  2.8359255189566402e-03  1.6569426140433706e-03  2.1662330647335918e-02  2.0508324469418427e-03  3.7695287953926704e-03  1.8934009940838629e-03  1.9735216541466694e-02  2.1254943742106180e-02  2.0885047502117258e-02  1.7063641363012284e-02  1.6117209399400943e-02  1.7612519288901840e-02  3.0643122471631433e-03  3.9994262723792610e-03  2.2230905370038499e-03  3.1531497058096295e-03  1.6667774771446462e-02  2.4471322719890392e-03  3.9731570403912925e-03  2.0966474921576684e-03  3.4157024438109833e-03  5.2398859980674860e-03  4.4724835981104598e-03  2.8070081711531404e-03  3.5397109845075447e-03  5.2186128079685116e-03  2.1056394380926848e-03  3.9635102275050607e-03  5.5810326613966567e-03  3.9195719719655351e-03  5.4706551203938811e-03  6.9711064329556023e-03  2.0300138572851140e-02  1.4835924696257772e-02  1.4698618941254649e-02  1.5427552734841893e-02  1.3756011769407498e-02  1.5925691443479727e-02  1.5211017186738528e-02  1.6507828312526004e-02  1.6053975500125758e-02  1.5340681480949555e-02  1.6466392317685787e-02  1.7174644779118693e-02  1.9358555277692861e-02  7.3770397820181301e-03  5.7840201637316940e-03  6.8452416471295411e-03  6.4732982615822139e-03  4.1090452386885242e-03  1.4807128514598018e-02  2.0594774559916724e-02  3.1141320115521376e-04  2.2304214095827876e-03  1.3769210823158571e-02  3.5394986676232352e-03  5.7679949669398054e-03  4.8602076345016492e-03  2.5611061739462958e-03  4.0284605878174390e-03  5.9960580491444995e-03  4.6730913731259484e-03  3.0442980681579107e-03  1.4668139538707573e-03  6.8154885245994348e-03  1.5793335509404885e-02  1.6775824001117448e-02  1.5973095220023326e-02  1.3524608686473651e-02  3.5246419041881256e-03  1.6408613773791027e-02  1.0378845136363586e-02  1.1822088892907999e-02  1.8198233205546584e-02  1.3513188278172860e-02  1.4155147411345589e-02  1.2078414317345550e-02  1.3916433894132912e-02  1.3664972719726049e-02  1.5519900109354293e-02  1.5635660052100573e-02  1.5143597392104451e-02  1.3268580824389208e-02  1.4706455168464368e-02  1.7224796801116646e-02  1.2791131610376989e-02  2.0769665530275528e-02  1.7291348227021320e-02  1.8871022107719480e-02  5.7772717863242037e-04  1.6433992483297194e-03  1.7665065377222511e-02  9.4208838279690663e-03  1.1335259547457122e-02  1.3570529628946276e-03  6.2781254010910101e-03  5.2464310007794440e-04  5.6521569830926576e-04  7.3121549758530567e-03  7.1314580522872486e-03  3.5218125458796024e-03  3.1850502067522733e-03  4.8174946079439195e-03  1.5188460348112115e-02  1.8238413929879994e-02  1.8014970780985736e-02  1.7547825915167049e-02  1.7667968955097091e-02  1.5852123061847304e-02  2.3387095239482572e-03  3.8102630747672631e-03  2.3119612560095690e-03  1.1246538200529961e-02  3.8934406255915297e-03  7.0080652538827282e-03  6.4767626936134866e-03  2.0131597773608407e-03  1.7470196951901752e-02  6.4626867807448026e-03  1.5033198117050462e-02  1.8511232954699433e-02  2.4654308230114897e-04  5.8974030254140605e-04  6.4760920060948589e-04  6.1467118898617962e-03  1.8732314899313558e-02  1.0750350592929640e-03  1.4368554040315272e-02  4.9383748199883677e-03  4.4533661789759498e-03  1.2622256267128821e-02  4.4749637681758118e-04  1.0637130298235433e-02  5.3592801590226797e-03  9.6614959320790253e-04  2.4204650551788685e-04  1.3476044034205056e-03  8.5433848396637235e-04  4.7396855087493292e-04  1.6584271123004365e-02  1.4266551049283044e-02  7.0247531322682241e-03  2.1037841578083284e-02  1.2104718783307968e-02  1.5313518049100104e-04  8.4011331581786640e-04  3.8995376147007758e-03  1.7076028617308996e-02  7.4056822646089834e-03  1.5468135762550702e-02  1.1154868062656731e-04  2.3643847730496128e-03  1.7577361072985439e-03  1.8766343438807928e-03  4.0767133895112887e-03  5.7519188297360255e-03  2.9093372149123465e-04  1.1575088529412809e-02  5.5480782786125902e-03  1.9625436964380617e-02  1.8504976769455259e-02  1.1734321141637730e-02  4.0237797960147375e-03  8.5387336998560895e-03  2.5864243208256949e-03  2.0568881135207533e-02  1.0129140986503754e-02  6.7462503900342415e-03  1.6981709353414164e-02  2.6012831029021432e-03  3.4794748120461436e-03  5.9873169628019106e-03  6.0646446761686680e-03  1.1560378399824668e-02  9.4147855728113714e-03  1.5403410539825841e-02  7.2914187062055455e-03  1.2214981964035426e-02  6.2447300975109086e-03  6.6793700739980156e-03  1.7675615499190750e-02  1.6858349198492061e-02  1.0796612287608027e-02  2.1249871595966443e-02  2.0923417833026269e-02  2.0227551947107444e-02  1.4192582872705928e-03  9.8221326275784934e-04  2.3736292761689518e-03  1.0819698289125157e-02  6.7443424175648887e-04  4.2638799603873665e-04  4.6655239325782416e-03  7.2713429589710906e-04  9.4150402524483280e-05  1.0813922174801982e-02  1.0726474219039085e-04  2.1150380769565075e-02  3.7621594324695486e-03  9.1667137250440421e-03  2.0982253943186733e-02  1.95125