<?xml version="1.0"?>
<VTKFile type="UnstructuredGrid"  version="0.1"  >
<UnstructuredGrid>
<Piece  NumberOfPoints="1242" NumberOfCells="2386">
<Points>
<DataArray  type="Float64"  NumberOfComponents="3"  format="ascii">0 0 0  0 1 0  1 1 0  1 0 0  1.1 -0.1 0  -0.1 -0.1 0  1.1 1.1 0  -0.1 1.1 0  0.5003394043309778 0.5026347359450308 0  0.6071889898581281 0.711177355401149 0  0 0.9499999999997918 0  0 0.8999999999995836 0  0 0.8499999999996529 0  0 0.7999999999999998 0  0 0.7500000000003466 0  0 0.7000000000006934 0  0 0.6500000000010401 0  0 0.6000000000013869 0  0 0.5500000000017335 0  0 0.5000000000020587 0  0 0.4500000000018723 0  0 0.4000000000016644 0  0 0.3500000000014564 0  0 0.3000000000012483 0  0 0.2500000000010403 0  0 0.2000000000008322 0  0 0.1500000000006241 0  0 0.100000000000416 0  0 0.05000000000020799 0  0.04999999999989965 0 0  0.09999999999981467 0 0  0.1499999999997036 0 0  0.1999999999995579 0 0  0.2499999999994121 0 0  0.2999999999992664 0 0  0.3499999999991206 0 0  0.3999999999989749 0 0  0.4499999999988292 0 0  0.4999999999986943 0 0  0.5499999999988151 0 0  0.5999999999989468 0 0  0.6499999999990784 0 0  0.69999999999921 0 0  0.7499999999993417 0 0  0.7999999999994734 0 0  0.8499999999996051 0 0  0.8999999999997368 0 0  0.9499999999998684 0 0  1 0.04999999999989965 0  1 0.09999999999981467 0  1 0.1499999999997036 0  1 0.1999999999995579 0  1 0.2499999999994121 0  1 0.2999999999992664 0  1 0.3499999999991206 0  1 0.3999999999989749 0  1 0.4499999999988292 0  1 0.4999999999986943 0  1 0.5499999999988151 0  1 0.5999999999989468 0  1 0.6499999999990784 0  1 0.69999999999921 0  1 0.7499999999993417 0  1 0.7999999999994734 0  1 0.8499999999996051 0  1 0.8999999999997368 0  1 0.9499999999998684 0  0.9499999999997918 1 0  0.8999999999995836 1 0  0.8499999999996529 1 0  0.7999999999999998 1 0  0.7500000000003466 1 0  0.7000000000006934 1 0  0.6500000000010401 1 0  0.6000000000013869 1 0  0.5500000000017335 1 0  0.5000000000020587 1 0  0.4500000000018723 1 0  0.4000000000016644 1 0  0.3500000000014564 1 0  0.3000000000012483 1 0  0.2500000000010403 1 0  0.2000000000008322 1 0  0.1500000000006241 1 0  0.100000000000416 1 0  0.05000000000020799 1 0  -0.1 1.05000000000004 0  -0.1 1.000000000000079 0  -0.1 0.9500000000001624 0  -0.1 0.9000000000003032 0  -0.1 0.850000000000444 0  -0.1 0.8000000000005848 0  -0.1 0.7500000000007256 0  -0.1 0.7000000000008665 0  -0.1 0.6500000000010508 0  -0.1 0.6000000000012352 0  -0.1 0.5500000000014196 0  -0.1 0.500000000001539 0  -0.1 0.4500000000014195 0  -0.1 0.4000000000013 0  -0.1 0.3500000000011588 0  -0.1 0.3000000000010178 0  -0.1 0.2500000000008986 0  -0.1 0.2000000000007579 0  -0.1 0.1500000000006174 0  -0.1 0.1000000000005272 0  -0.1 0.05000000000040083 0  -0.1 2.671196597248127e-13 0  -0.1 -0.0499999999998666 0  -0.0500000000000906 -0.1 0  -1.730560139634463e-13 -0.1 0  0.04999999999975802 -0.1 0  0.09999999999961506 -0.1 0  0.1499999999994613 -0.1 0  0.199999999999302 -0.1 0  0.2499999999991446 -0.1 0  0.2999999999990088 -0.1 0  0.3499999999988296 -0.1 0  0.3999999999986936 -0.1 0  0.4499999999985143 -0.1 0  0.4999999999984002 -0.1 0  0.5499999999985247 -0.1 0  0.5999999999986493 -0.1 0  0.6499999999987955 -0.1 0  0.6999999999989417 -0.1 0  0.7499999999990659 -0.1 0  0.7999999999992116 -0.1 0  0.8499999999993573 -0.1 0  0.8999999999994526 -0.1 0  0.949999999999584 -0.1 0  0.9999999999997226 -0.1 0  1.049999999999861 -0.1 0  1.1 -0.0500000000000906 0  1.1 -1.730560139634463e-13 0  1.1 0.04999999999975802 0  1.1 0.09999999999961506 0  1.1 0.1499999999994613 0  1.1 0.199999999999302 0  1.1 0.2499999999991446 0  1.1 0.2999999999990088 0  1.1 0.3499999999988296 0  1.1 0.3999999999986936 0  1.1 0.4499999999985143 0  1.1 0.4999999999984002 0  1.1 0.5499999999985247 0  1.1 0.5999999999986493 0  1.1 0.6499999999987955 0  1.1 0.6999999999989417 0  1.1 0.7499999999990659 0  1.1 0.7999999999992116 0  1.1 0.8499999999993573 0  1.1 0.8999999999994526 0  1.1 0.949999999999584 0  1.1 0.9999999999997226 0  1.1 1.049999999999861 0  1.05000000000004 1.1 0  1.000000000000079 1.1 0  0.9500000000001624 1.1 0  0.9000000000003032 1.1 0  0.850000000000444 1.1 0  0.8000000000005848 1.1 0  0.7500000000007256 1.1 0  0.7000000000008665 1.1 0  0.6500000000010508 1.1 0  0.6000000000012352 1.1 0  0.5500000000014196 1.1 0  0.500000000001539 1.1 0  0.4500000000014195 1.1 0  0.4000000000013 1.1 0  0.3500000000011588 1.1 0  0.3000000000010178 1.1 0  0.2500000000008986 1.1 0  0.2000000000007579 1.1 0  0.1500000000006174 1.1 0  0.1000000000005272 1.1 0  0.05000000000040083 1.1 0  2.671196597248127e-13 1.1 0  -0.0499999999998666 1.1 0  0.6309171676189773 0.7039601184957055 0  0.6535253800789739 0.6937357805117398 0  0.674719958051878 0.6808163576116262 0  0.6929290410485076 0.6639476117701505 0  0.7079676856269846 0.6441945007611332 0  0.7184128128218773 0.6217239942763892 0  0.7258421055936164 0.5980534915343395 0  0.732001502281995 0.5740416994090003 0  0.7357358903249632 0.549553180243347 0  0.7371126244268709 0.5248232794176038 0  0.7372551245089422 0.5000619952053709 0  0.7351416514789253 0.4754034992447936 0  0.7306192672450704 0.4510723421304128 0  0.7243723564056561 0.4271339861058845 0  0.7172138265462765 0.4034506074618349 0  0.7090728063636241 0.3800849586441777 0  0.699146266809994 0.3574103646130725 0  0.6869286690770507 0.3358760244384646 0  0.6723853380272272 0.315830089312964 0  0.6550559833850241 0.2981311477342267 0  0.6354729293976621 0.2829668656264688 0  0.6140113127394461 0.2705991428830662 0  0.5908711831002523 0.2618366608207309 0  0.5664941269987201 0.2575691543050876 0  0.5417741638001391 0.2568075239323487 0  0.5171763976686049 0.2593796324070249 0  0.4930398387532038 0.2646818066539025 0  0.4693673211724153 0.2716824045970038 0  0.4462902057997196 0.2803906147411596 0  0.4239130000097914 0.2907635497139592 0  0.4021698558138892 0.30240027258478 0  0.3813369498277588 0.3155806121237416 0  0.3609735683374415 0.3294744728392602 0  0.3408855075666867 0.3437647060371284 0  0.3213317053118599 0.3587896483401403 0  0.3032298477082045 0.3755596115043154 0  0.2861761818812469 0.3934153111530346 0  0.2701792807378564 0.4122399191073772 0  0.255363860974867 0.4320290922423546 0  0.2419290561259711 0.4528011575754126 0  0.2302369986088386 0.4746285681721044 0  0.2215743357846789 0.4977623541159531 0  0.2202838486290159 0.52252413974227 0  0.2242084046969838 0.5470046018493476 0  0.2346543196252862 0.5694870635054454 0  0.2484982829020478 0.5900793933021929 0  0.2651643966667656 0.6084462443301608 0  0.2832841729407793 0.6253532424305832 0  0.3027844001652498 0.6406166528942631 0  0.3232038683138224 0.6545939793442803 0  0.3439103035446146 0.6681278017040755 0  0.3657395612849994 0.6797472035791817 0  0.3884269768310307 0.6895783726916055 0  0.411733086727595 0.6978172535385911 0  0.4354360520882607 0.7048158664699666 0  0.4597496899797404 0.7091976758927903 0  0.4842217361801455 0.7125879817775598 0  0.5087646422079493 0.7154227742555715 0  0.533411229099042 0.7172962220559694 0  0.5581452959627606 0.7176047272194273 0  0.5828154294652217 0.7156286853061203 0  0.2668287063219916 0.4531565331065545 0  0.3074920687487431 0.6134587098199444 0  0.6541723565766079 0.67119393938216 0  0.7091196732533254 0.581266058811184 0  0.5711593229727489 0.692190254782055 0  0.4982182187757526 0.6921292253974729 0  0.3072871855098363 0.4007098140374273 0  0.3633370306622309 0.3542279447737559 0  0.4231531437393003 0.3148723514223821 0  0.3687557325361469 0.6534185828294252 0  0.6140234567925359 0.2946007969582101 0  0.5085609689563552 0.2816266177058682 0  0.6743836819702648 0.357168116840672 0  0.7009360637656996 0.4204904219857754 0  0.4302059744948415 0.6787555077753182 0  0.7177013125930644 0.5135343614047941 0  0.2589896680560759 0.5688446211352527 0  0.2421651952224972 0.511322149867055 0  0.4649260816698949 0.2945914196506803 0  0.7126478393553325 0.4676416597099798 0  0.6946294836931247 0.6250925263141132 0  0.5544900917551987 0.2779978750975479 0  0.611485849892314 0.6887762140770228 0  0.649553859113694 0.3208248700109859 0  0.3829862761842119 0.339982509164622 0  0.3858259405316844 0.3648422505826834 0  0.3640878755753391 0.3792962127202018 0  0.3867949109066666 0.3911562762621404 0  0.4092957691062334 0.3748489076849987 0  0.407758528640722 0.4004939196825056 0  0.3882280825214837 0.4193194147392892 0  0.4353602955077199 0.3874852445371347 0  0.4213801623272608 0.4313281287963212 0  0.3879950021274798 0.456156519305609 0  0.4623962599780216 0.421666685140072 0  0.477932273430395 0.3745632327473576 0  0.5058767061835038 0.4152671627368755 0  0.5228341899693372 0.3693042393629895 0  0.5495842998435674 0.4079422018029564 0  0.5678750585695237 0.3622247775009034 0  0.5959515125003982 0.3979325822443458 0  0.5783343673218362 0.4403165306680698 0  0.627479952111656 0.4319422872895655 0  0.6073172507886393 0.4710266564069503 0  0.6456502876992383 0.4634819534241401 0  0.6381090893806817 0.5029843332610605 0  0.5940741575630344 0.5105489870452776 0  0.6274488703037494 0.5415622754991644 0  0.5823781667829923 0.5509408161784147 0  0.615637086718845 0.5817065368077994 0  0.5692788324904468 0.5914520303067248 0  0.5990493688867043 0.6176946882743694 0  0.5653361786658925 0.632240471462894 0  0.5348892461175712 0.6074899486802905 0  0.6323393801042254 0.6128805149678376 0  0.6005745229538092 0.3675724217996398 0  0.3628971417887554 0.4369941668070079 0  0.3539120195998686 0.4698649351317051 0  0.3863581994518268 0.4946854229729548 0  0.3485273759284711 0.5110747270264 0  0.3833699576173926 0.5328785283756364 0  0.3507710735807266 0.548766291423929 0  0.3786357051675283 0.5737893970564393 0  0.3211200791131524 0.532711641044429 0  0.4148813419888782 0.5545606444311242 0  0.4106035170994852 0.5966778308040719 0  0.4551973758884145 0.5728913198336055 0  0.4417281008811477 0.6135593922045564 0  0.3240833111436207 0.4553420480782265 0  0.54146651734607 0.3443517085810467 0  0.6540473999649483 0.52
[...]
<PointData  Scalars="v"> 
<DataArray  type="Float64"  Name="v"  format="ascii">4.0187009554352230e-21  1.1055695144118895e-19  2.3807708736487136e-19  2.3167538700278502e-20  -1.3155851433532615e-21  1.3511022313116927e-22  -7.1003761422468533e-22  -6.0915514041240898e-21  2.8645566364455650e-03  2.0723381463116277e-03  -8.6767630956925482e-21  1.3713818103885297e-19  3.5432193054250768e-19  9.7300855695243381e-19  -4.4945842649101848e-19  2.8937612411553977e-19  1.1557268595223939e-18  1.4801248299928211e-18  7.2462759613912066e-19  2.8224190764147127e-19  3.6286239649169234e-18  1.5583160211856403e-18  7.5136520047926854e-19  7.8116095882355144e-19  -5.6925874913678836e-21  6.4718428439294051e-19  -1.2372391548750031e-19  7.1699832221791555e-20  -1.6590835283406818e-20  4.6028399470450198e-20  7.6198436612157593e-20  -2.0221512526189751e-19  5.6242638796970886e-19  4.5399803689465020e-19  -3.2643757500855095e-20  2.3257508754049698e-18  9.8945270394211470e-19  2.5829159370489445e-19  4.4371060409373464e-19  4.5328695985795707e-19  4.4008609891152651e-19  -6.9925821566545442e-19  -4.6432434207775389e-20  -8.7029114183738053e-19  2.0073004470452227e-19  2.7492276886724313e-19  -1.4733173728346895e-19  -3.1712666950955400e-19  -3.4878189018235960e-19  4.5132752653276023e-19  1.6514701314476464e-18  -1.7597438677700069e-18  -6.5965199754333574e-19  5.8750648041635937e-19  -1.3540675809106492e-19  -1.0306598754771027e-17  -2.9124612226126728e-18  3.7982881406498000e-18  -4.6439927098474485e-18  3.7750071896042446e-19  3.1346509372578018e-20  1.1584030100843175e-19  -2.9326318046918564e-18  1.3275659713100938e-18  1.8237369844075319e-18  -1.2218206823681693e-18  -8.4217785806712128e-20  8.4312334720691596e-19  1.1367092055738520e-19  3.0367810503363535e-19  -6.0258250899039558e-19  -3.1637876657497554e-19  4.7814600815097801e-18  2.4965569960386835e-19  5.2611711004532192e-18  -5.1912654840375307e-18  -2.1787149411740828e-18  4.5850857772100413e-18  -1.4249188171102192e-18  -6.3439986000314635e-20  -4.0086723092612659e-18  5.9862741520681771e-19  2.8235893443135366e-19  2.1888154657367460e-18  2.5058296147085025e-19  2.4956295093131616e-19  2.5203721031232377e-21  1.1964045067629438e-20  -7.0676896044843708e-22  1.3643717148475149e-21  9.2416081874192436e-20  6.4360389305316138e-20  -2.9187970829086893e-20  -3.1556537703281632e-20  1.6729111738190073e-19  2.3720528967539279e-19  8.0590150140848582e-20  1.0980279930754215e-19  3.9860650835055350e-19  2.8688575648553838e-19  1.0830515653848160e-19  1.6561957272941817e-19  4.6479262102130458e-20  3.7095269954898425e-20  -1.0883887811824717e-20  2.4515727793313544e-21  -1.9701787440534123e-21  -5.0813361524059736e-23  3.3244596532439974e-22  -1.7182911642752314e-21  6.9888536225711872e-21  1.2202316003958418e-20  -8.1639694774842406e-21  1.1964406438447745e-20  1.6855540810913678e-20  -9.0767382788320013e-21  4.3031559594635518e-20  2.2951261932930402e-19  1.9121742316143426e-19  4.0698659685709319e-20  4.7617705901250347e-20  6.3925046488714984e-20  3.9350099053638661e-20  -3.6600743411313181e-20  -5.8735950670134013e-20  -6.2606622139273036e-20  2.4923922462795156e-21  5.2743238667005850e-20  -2.7160802356949859e-20  -3.2493402422226887e-20  -5.8508491394374399e-21  5.4217049739079846e-21  -3.1677134705988072e-21  6.7194459924414187e-21  3.6780925592638349e-20  3.5141466561671266e-20  1.9579267494308266e-20  -3.0900993331179193e-21  -4.7791761824393751e-20  -3.1012362450792975e-20  1.2117725974704676e-20  3.0852412635382898e-20  -2.1339541571055445e-20  -5.0778002952537679e-20  -3.2601174092266401e-20  -1.9410024245802945e-20  2.5345504808476149e-22  7.1417501715638911e-21  -2.4584982259502390e-21  -4.0009970093580019e-20  -1.0160433039260113e-20  7.8144747958430927e-22  -8.6447738289865463e-21  8.3140713053166810e-22  2.2221805902161970e-21  -2.5143484530351631e-21  8.8724508606138246e-21  2.0295795133178865e-20  2.6496077161737558e-20  3.2345773567326121e-20  -2.8925148601399335e-21  4.4457489035723864e-20  7.8256001090509339e-20  8.6423139704730617e-20  6.4417162458529576e-20  -1.4019296899500092e-20  -6.5745754692667093e-20  -4.9399986725520283e-22  2.7936639161230319e-21  -2.2651115009887989e-20  -2.2638574764263567e-21  -2.2772878127355753e-20  1.0833217348245341e-20  3.4983530440901452e-20  3.2977373955792762e-20  -1.0413979418570040e-20  2.7419134286339272e-21  6.5547691959230926e-21  1.9952904183604490e-03  1.9289108586656525e-03  1.8705039885487957e-03  1.8260556112614078e-03  1.7981550798808793e-03  1.7887152570460656e-03  1.7923101767617722e-03  1.7919630206059867e-03  1.7939660642449420e-03  1.7991059154824399e-03  1.7932570706794947e-03  1.7893145469821592e-03  1.7833480590248156e-03  1.7727076912408735e-03  1.7561568743030063e-03  1.7234820961393494e-03  1.6864447817046626e-03  1.6514910666470262e-03  1.6210507201635811e-03  1.6012922817130726e-03  1.5901679769728403e-03  1.5892066719927970e-03  1.6040431726490885e-03  1.6366299958281085e-03  1.6872583533382622e-03  1.7486813759511489e-03  1.8144382959163648e-03  1.8766310485611665e-03  1.9239677931801921e-03  1.9586972525911621e-03  1.9782526768354529e-03  1.9813246388454748e-03  1.9641165960553562e-03  1.9240175012173119e-03  1.8637893613454850e-03  1.7873008408391860e-03  1.6985972031941373e-03  1.6002219266875613e-03  1.5021554539817092e-03  1.4092925722728740e-03  1.3248951959634039e-03  1.2693436954972588e-03  1.2541411449327130e-03  1.2807491883879908e-03  1.3470818940356604e-03  1.4384602276712676e-03  1.5482895608438284e-03  1.6646118526814041e-03  1.7892980570109241e-03  1.9067072010323805e-03  2.0087761354983425e-03  2.0960506681076121e-03  2.1700675899070029e-03  2.2286503746177114e-03  2.2686103391163577e-03  2.2955638025185187e-03  2.3018604819327517e-03  2.2852916095266514e-03  2.2495219058746951e-03  2.1992614648967154e-03  2.1359026299949679e-03  1.6496476392761676e-03  1.9330302138529847e-03  2.1091943277955333e-03  2.0266735359828632e-03  2.3795492354698705e-03  2.4972882450504936e-03  1.9219787508798899e-03  2.1343880363268891e-03  2.1614773509922905e-03  2.2653023142128483e-03  1.8060170875202272e-03  1.9892148538774748e-03  1.8922178853141962e-03  1.9798587890560507e-03  2.4538781973184117e-03  2.0154057222750688e-03  1.5476639828271757e-03  1.4289570948635569e-03  2.0914795955622192e-03  2.0094296699045755e-03  2.0187296205703147e-03  1.8860817996280937e-03  2.2434778314719588e-03  1.8252526594794208e-03  2.1639243260664805e-03  2.2742427675191460e-03  2.2189454239176722e-03  2.3637016589208872e-03  2.4002094885767601e-03  2.4738105232752819e-03  2.4382078301470227e-03  2.5186514616079296e-03  2.5965255576320782e-03  2.4966025350766103e-03  2.6718218780530708e-03  2.5299327816703677e-03  2.6760202259501526e-03  2.4842371819063453e-03  2.5975049060668609e-03  2.3555014388501831e-03  2.4272559621083046e-03  2.6295437615642620e-03  2.4200537159200426e-03  2.6026455276615089e-03  2.4113096901440009e-03  2.5082216521891821e-03  2.7043537726668147e-03  2.5698072180042266e-03  2.7504010552097517e-03  2.5888142616894362e-03  2.7476742990684396e-03  2.5849441265153564e-03  2.6622357145178370e-03  2.7934399230388676e-03  2.4348195733406705e-03  2.2712680378342239e-03  2.3367822149603320e-03  2.3150413053925662e-03  2.5222620289773678e-03  2.2963729440423218e-03  2.5169161250113078e-03  2.3068665237050514e-03  2.4760562637229358e-03  2.0883214359507340e-03  2.6754317147556030e-03  2.6236285571334277e-03  2.8049065867761006e-03  2.7127417390118841e-03  2.0949367148339290e-03  2.3227246505101301e-03  2.4278072291274246e-03  2.0622494811370828e-03  2.7416407991210320e-03  2.5565799375008441e-03  2.5987077285860565e-03  2.4638562369552050e-03  2.2740830547607516e-03  2.4125522754933917e-03  2.5004284064948029e-03  2.2930803502551572e-03  2.2783187134372222e-03  2.3945423015956698e-03  1.8681523115274823e-03  1.8813659295836573e-03  1.8750521182435559e-03  1.7205560306790613e-03  2.1045850085859531e-03  2.7864450535994138e-03  2.8532111841002702e-03  2.6927512930114950e-03  2.1803620451131861e-03  2.0474849236049412e-03  2.1006960000044600e-03  2.2499750865111216e-03  2.2177823695833016e-03  2.2685087712351307e-03  2.1249924830959439e-03  2.1105973844576550e-03  2.6101339164908695e-03  2.6653212764311002e-03  1.6706561703040148e-03  1.8940029557160691e-03  2.4339125103879631e-03  2.4044989491865685e-03  2.2078770073793458e-03  2.6267801903202765e-03  2.2639188164766855e-03  2.2387065815235563e-03  2.0653185559107463e-03  2.4098274760348528e-03  2.4930641784155758e-03  2.5571824146794352e-03  2.3657227583333143e-03  2.2706895578249982e-03  2.3197560037013245e-03  2.2374168304285734e-03  2.2949456621296316e-03  2.1379494582589070e-03  2.1189672593524863e-03  1.6968467975763371e-03  1.8390340198131724e-03  1.8311599748322164e-03  2.2890622006842723e-03  2.7991796362421776e-03  2.7591397796113471e-03  2.4843044891892487e-03  2.4760468058419730e-03  1.9525543691575602e-03  2.8401353923726649e-03  2.0174059119268555e-03  2.3985311089527819e-03  2.2580829112318654e-03  1.8145270819248046e-03  2.0724315918889420e-03  2.1720925189447422e-03  1.9982542528868661e-03  2.0274639373339303e-03  2.1409138969620623e-03  2.7226299009396938e-03  2.3426129959335240e-03  2.3878414855568264e-03  2.1320804479511911e-03  2.2700677127310662e-03  2.0400729573106366e-03  2.2977035274384127e-03  2.4157729030084910e-03  2.5190689750475464e-03  1.7857545253027213e-03  2.1497502385235396e-03  2.0979175888133882e-03  1.9638412808271610e-03  2.0152828527002426e-03  2.1497182413643869e-03  2.0224548396411920e-03  2.0231080130996243e-03  2.5645578930575783e-03  2.7787193359718053e-03  1.6458860288893259e-03  2.8494998400230517e-03  2.1828337095144085e-03  1.9395087013694464e-03  2.0301677794134334e-03  2.0608546512107923e-03  1.7989712204827570e-03  1.8549019778529960e-03  1.9694614082138105e-03  1.8133893542290355e-03  2.2919480658986822e-03  1.4488465970240679e-03  2.4469528959546898e-03  2.7761310091712842e-03  2.6898053754405163e-03  2.5958872381892932e-03  1.9711652338506381e-03  2.1302262850255217e-03  1.7957033475412849e-03  1.9471654216594663e-03  2.1504288680484962e-03  2.0001211278828841e-03  1.6755296176576972e-03  2.0501979382118070e-03  2.2595078354190963e-03  2.3736779344044243e-03  2.2475521844420934e-03  2.2849633300793698e-03  1.5183867174716188e-03  2.2824629041433872e-03  1.9611189470377091e-03  2.4481326878372793e-03  1.5128808029764467e-03  1.4759509596304959e-03  2.2541174102665537e-03  2.4995466859998772e-03  2.2178968159861021e-03  1.9940606360632955e-03  1.9507211718074624e-03  2.0632106902359324e-03  2.7987434895644764e-03  2.2174799560046271e-03  2.0951783504001504e-03  2.1542225755013041e-03  2.5111184798414323e-03  2.1246694891009967e-03  2.1307465360696702e-03  1.9484792211749381e-03  2.1068047371024215e-03  2.4129946371178740e-03  2.3588380684840047e-03  1.9426255005301953e-03  2.1358615809724834e-03  2.6474004247884829e-03  2.0829966510518627e-03  2.1848960824249063e-03  2.3195830296642199e-03  2.7986778382885292e-03  2.1937987172174268e-03  1.9203142409845548e-03  2.2685247018148754e-03  2.3955584503747344e-03  2.2870281716081803e-03  2.1554388916410344e-03  2.8747986810069635e-03  2.7048710756731810e-03  2.3537064843363710e-03  2.2702061173195923e-03  1.9814048230268745e-03  2.3044055965342194e-03  1.9887846446743824e-03  2.7151962691446684e-03  2.1294507519695641e-03  2.1560488630935708e-03  2.0768609656111746e-03  2.3091918740928597e-03  2.3686162789324037e-03  2.1786884497334673e-03  2.2062973733029266e-03  2.1807553469820346e-03  2.3596634668317800e-03  2.0651064382296589e-03  2.1395249805194845e-03  1.7364836349633610e-03  2.6967892313859636e-03  2.6606132673935852e-03  1.6946437904289389e-03  2.0537897836633741e-03  1.3746737355504999e-03  1.7472317830813091e-03  1.8244939792084569e-03  1.7187662738192442e-03  1.7186958101869780e-03  1.5033477905749219e-03  1.9845741174255608e-03  1.5287833638258765e-03  1.8374088873438978e-03  1.5754685920406988e-03  1.6691639896514649e-03  2.1258139624289207e-03  1.3947922270853925e-03  1.2203515642102666e-03  1.4801416130824465e-03  2.0239130180328005e-03  1.8263308746057098e-04  1.7340288362976317e-03  2.0301300903191927e-04  2.1737954738384151e-04  1.6331189432988835e-03  1.9673233483897718e-04  1.6536297360510617e-03  1.8502014887287235e-04  2.2797036877981891e-04  2.1310971776170140e-04  1.5024723981368667e-03  1.5980755319024047e-03  1.9809339757442411e-04  1.2894319155777544e-03  1.6387358878226729e-03  3.1301271795878199e-04  1.1686399413955812e-03  3.0096009311976019e-04  3.8463806424117057e-04  2.1123974167877556e-03  2.8800074405990576e-04  2.9119160685421260e-04  2.7978583800245584e-04  3.0335930782083317e-04  3.5060712163654438e-04  2.8376472672514972e-04  2.2331243634068700e-04  4.1012262485934435e-04  2.6884132600673769e-04  1.4587391989601174e-04  1.1207942110354534e-04  1.1819526002523744e-04  1.1270543505979917e-04  2.7482260766781253e-04  1.4628673226672325e-04  1.3347400991294564e-04  1.2745505169276994e-04  1.3109055516126312e-04  1.1582553320547764e-03  1.1143501394695915e-03  1.0587253581927003e-03  9.8527869803029179e-04  1.0436899554244841e-03  9.2578372380112972e-04  8.8292630678883850e-04  9.5592188600509415e-04  7.6332096545402212e-04  8.3917428783512687e-04  1.0378856935518296e-03  9.0581667024491452e-04  1.1333050999979470e-03  9.6525080517024012e-04  1.1606377269267291e-03  9.9646093543185005e-04  1.1790535821130398e-03  1.0002456032474558e-03  1.1701512336661829e-03  9.7013625745268701e-04  1.1277561903313457e-03  8.1168279399881221e-04  1.3276170320404856e-03  1.2779954635310248e-03  1.0411425357559096e-03  1.1690843919985273e-03  1.4246304460524819e-03  1.2861042913998957e-03  9.1002058771706370e-04  1.5420761607648921e-03  1.3842056941879379e-03  7.6296151498691253e-04  7.9457428322947767e-04  6.1752226916086928e-04  1.6780759365094572e-03  1.4639780969866252e-03  1.7239654415397111e-03  1.5106072206291358e-03  1.2389345285597187e-03  1.2722421988483979e-03  1.5373368392607896e-03  1.2867728605233542e-03  1.5759167992082340e-03  1.2848860314367385e-03  1.5129008186160913e-03  1.2492040632218037e-03  1.4924333339965039e-03  1.2020893661787218e-03  1.4064320557126326e-03  1.1315494298706895e-03  1.2873507136312659e-03  1.0422664060002421e-03  1.1799429495130305e-03  9.4110300738751117e-04  1.0565616171778361e-03  8.3651738059318484e-04  9.2069140679570873e-04  1.1350045519004132e-03  9.7478782510275746e-04  1.1768212774154250e-03  9.9794754651639410e-04  1.1884166013310220e-03  9.8694247502522942e-04  1.1710159942339045e-03  7.8596794320946338e-04  9.5257578670021386e-04  1.1672544724016395e-03  7.8461335768098333e-04  7.7348655228982237e-04  1.4367515907155190e-03  9.7971962072245845e-04  1.3329741091609032e-03  1.5815405786453883e-03  1.1169791144358982e-03  5.4631961899328054e-04  1.3238880914774325e-03  9.9177736561528555e-04  1.7836054301145880e-03  9.1478818553970668e-04  1.0775071966360348e-03  1.3058799653375484e-03  1.2645899217674456e-03  9.9399946120331054e-04  1.1538411096623723e-03  4.2791258403173315e-04  1.7436600288514262e-03  1.3514450411712124e-03  4.9151642935304910e-04  8.9048049352538053e-04  1.0468742463871075e-03  1.2894630232540537e-03  1.2205927747346505e-03  9.4147520669677547e-04  1.0817066054509509e-03  8.1860423567890945e-04  9.5420614215118717e-04  1.1933146877069292e-03  1.0638824728873321e-03  1.2791804606788206e-03  1.1485154266780320e-03  9.3377848112564628e-04  1.0102743061577103e-03  7.9538894494622398e-04  8.6596386783681888e-04  1.0627767112670054e-03  9.0958257822403217e-04  1.0907311783307715e-03  9.2888096228469484e-04  7.5586734484704970e-04  7.5965351141544124e-04  9.1797821095010836e-04  7.3659095609172431e-04  8.7845782871979040e-04  5.8925693866093167e-04  1.0666456914722579e-03  1.0169724477679751e-03  8.1429174221354700e-04  9.4237028160378661e-04  7.2882258620821810e-04  8.5421437869770129e-04  1.0690737414817892e-03  9.6298204233158814e-04  1.2421705851167779e-03  1.2557872903201112e-03  6.5562991883509397e-04  1.1985218512209747e-03  1.3413202165441867e-03  1.1772208011008695e-03  1.1069583664033019e-03  8.3444266844372834e-04  9.4429069462945506e-04  1.2194029957388747e-03  1.0493309889940011e-03  1.2779627393017931e-03  1.1335118834833221e-03  1.3517469791125695e-03  1.2090289733101931e-03  9.6474136613358609e-04  1.0345333966693872e-03  1.3354095063635525e-03  1.0980772155902339e-03  1.3137855566699283e-03  1.1177120121585596e-03  1.3096229271792120e-03  1.1223654261089051e-03  1.2877050821312212e-03  1.0958833686296040e-03  1.2446654979207136e-03  1.0415895292618246e-03  1.1653273842209060e-03  9.5892049841501948e-04  1.0601714797425720e-03  8.5279558352306076e-04  9.2506550169410681e-04  7.5537443916294609e-04  1.1316320507761774e-03  9.7383011733918781e-04  9.2640581413703518e-04  1.4737831089254203e-03  7.6923120022557212e-04  7.9912086827265501e-04  9.9874039368372898e-04  6.5243636742080195e-04  5.6218918284492339e-04  8.1158064676605532e-04  1.0035750396846679e-03  8.0943454310927244e-04  6.3303885875725394e-04  5.9344676458592037e-04  1.4970877062477975e-03  1.0137011467777116e-03  7.9560927797285097e-04  9.7032311411422885e-04  7.8688177459550689e-04  1.1788211748768403e-03  8.5906110884721232e-04  6.6804653841108985e-04  4.5635520243733862e-04  7.8834746868144143e-04  5.5738856511743941e-04  4.2447359062817384e-04  4.4275791896444800e-04  1.3855927254198723e-03  5.6327883701051359e-04  9.3008044992560731e-04  6.9971208248141104e-04  4.4068151237015526e-04  6.8326260103808358e-04  5.7266659243354308e-04  7.9697243784286782e-04  6.4640454152721245e-04  7.5592849321557971e-04  7.0595638389985428e-04  6.1165511679867502e-04  4.9602523891876008e-04  1.0034114114711406e-03  1.2591800389050822e-03  1.3807098131960274e-03  9.4719600547241839e-04  1.4496043829445554e-03  1.4569711267213422e-03  1.5301874253470615e-03  6.6610131022991044e-04  1.3832196748213967e-03  6.6642792412260671e-04  5.4485141359019872e-04  1.4893116879779692e-03  8.5519826227712758e-04  9.4609663525382145e-04  5.9502411541896203e-04  1.4183375170451935e-03  1.4801275726028435e-03  3.0153520799819014e-04  1.1784746256198770e-03  1.4484197950677643e-03  1.4907541628865913e-03  1.3706889181774810e-03  5.8382897366067693e-04  1.2353595643870565e-03  1.3400963765581361e-03  1.5390996328052129e-03  1.4809411391426260e-03  4.7138286965392272e-04  3.6338602184390754e-04  1.6801325455957294e-03  1.6237005004813535e-03  1.6419093213831512e-03  1.5893469025954701e-03  1.5878621249729064e-03  4.3735796953199400e-04  5.2159273467586927e-04  1.4063580470284305e-03  1.3257176181657947e-03  1.4561070978914906e-03  1.1292586698686113e-03  1.2694806814404081e-03  4.9201446101438306e-04  6.8387797564399859e-04  5.0882155245517331e-04  1.5764907655164235e-03  1.3916633597707148e-03  1.3352662846181920e-03  6.1922343161768302e-04  1.7379292422929301e-03  1.6363230607484632e-03  2.9462804684327493e-04  2.6664277021398622e-04  1.2012699726481144e-04  1.5890027108003450e-03  1.2954056093564838e-03  5.1239840684710891e-04  1.0974680957421656e-03  1.1552862506181640e-03  1.2327471591014804e-03  1.3360227084261796e-03  1.6135289846079205e-03  1.4891845887633154e-03  1.8843171768469632e-03  1.7723273894383622e-03  1.8065908235969849e-03  1.6687828607383826e-03  1.3456094858161614e-03  1.9159774776548761e-03  1.8246187093834967e-03  2.8973301391198265e-04  4.2629363824719279e-04  1.1169662498643814e-03  2.0934201893126570e-03  2.0166590461352641e-03  2.0454733927988086e-03  1.9568071257686152e-03  6.9221392127413620e-04  1.3586251160626322e-03  2.0459458643925748e-03  1.9229014699286844e-03  1.8627234959289461e-03  1.7669032196530098e-03  1.7204455435504589e-03  1.7853021576435951e-03  1.6378897277042378e-03  1.6859366514185804e-03  1.5415023056866142e-03  1.5845348771096760e-03  1.3097003805525615e-03  1.5809044758773310e-03  3.8981224240647506e-04  4.1233616074091474e-04  1.6503033472511557e-03  1.5949350231976426e-03  1.651