<?xml version="1.0"?>
<VTKFile type="UnstructuredGrid"  version="0.1"  >
<UnstructuredGrid>
<Piece  NumberOfPoints="1078" NumberOfCells="2058">
<Points>
<DataArray  type="Float64"  NumberOfComponents="3"  format="ascii">0 0 0  0 1 0  1 1 0  1 0 0  1.1 -0.1 0  -0.1 -0.1 0  1.1 1.1 0  -0.1 1.1 0  0.5022171590331148 0.5534775090682903 0  0 0.9499999999997918 0  0 0.8999999999995836 0  0 0.8499999999996529 0  0 0.7999999999999998 0  0 0.7500000000003466 0  0 0.7000000000006934 0  0 0.6500000000010401 0  0 0.6000000000013869 0  0 0.5500000000017335 0  0 0.5000000000020587 0  0 0.4500000000018723 0  0 0.4000000000016644 0  0 0.3500000000014564 0  0 0.3000000000012483 0  0 0.2500000000010403 0  0 0.2000000000008322 0  0 0.1500000000006241 0  0 0.100000000000416 0  0 0.05000000000020799 0  0.04999999999989965 0 0  0.09999999999981467 0 0  0.1499999999997036 0 0  0.1999999999995579 0 0  0.2499999999994121 0 0  0.2999999999992664 0 0  0.3499999999991206 0 0  0.3999999999989749 0 0  0.4499999999988292 0 0  0.4999999999986943 0 0  0.5499999999988151 0 0  0.5999999999989468 0 0  0.6499999999990784 0 0  0.69999999999921 0 0  0.7499999999993417 0 0  0.7999999999994734 0 0  0.8499999999996051 0 0  0.8999999999997368 0 0  0.9499999999998684 0 0  1 0.04999999999989965 0  1 0.09999999999981467 0  1 0.1499999999997036 0  1 0.1999999999995579 0  1 0.2499999999994121 0  1 0.2999999999992664 0  1 0.3499999999991206 0  1 0.3999999999989749 0  1 0.4499999999988292 0  1 0.4999999999986943 0  1 0.5499999999988151 0  1 0.5999999999989468 0  1 0.6499999999990784 0  1 0.69999999999921 0  1 0.7499999999993417 0  1 0.7999999999994734 0  1 0.8499999999996051 0  1 0.8999999999997368 0  1 0.9499999999998684 0  0.9499999999997918 1 0  0.8999999999995836 1 0  0.8499999999996529 1 0  0.7999999999999998 1 0  0.7500000000003466 1 0  0.7000000000006934 1 0  0.6500000000010401 1 0  0.6000000000013869 1 0  0.5500000000017335 1 0  0.5000000000020587 1 0  0.4500000000018723 1 0  0.4000000000016644 1 0  0.3500000000014564 1 0  0.3000000000012483 1 0  0.2500000000010403 1 0  0.2000000000008322 1 0  0.1500000000006241 1 0  0.100000000000416 1 0  0.05000000000020799 1 0  -0.1 1.05000000000004 0  -0.1 1.000000000000079 0  -0.1 0.9500000000001624 0  -0.1 0.9000000000003032 0  -0.1 0.850000000000444 0  -0.1 0.8000000000005848 0  -0.1 0.7500000000007256 0  -0.1 0.7000000000008665 0  -0.1 0.6500000000010508 0  -0.1 0.6000000000012352 0  -0.1 0.5500000000014196 0  -0.1 0.500000000001539 0  -0.1 0.4500000000014195 0  -0.1 0.4000000000013 0  -0.1 0.3500000000011588 0  -0.1 0.3000000000010178 0  -0.1 0.2500000000008986 0  -0.1 0.2000000000007579 0  -0.1 0.1500000000006174 0  -0.1 0.1000000000005272 0  -0.1 0.05000000000040083 0  -0.1 2.671196597248127e-13 0  -0.1 -0.0499999999998666 0  -0.0500000000000906 -0.1 0  -1.730560139634463e-13 -0.1 0  0.04999999999975802 -0.1 0  0.09999999999961506 -0.1 0  0.1499999999994613 -0.1 0  0.199999999999302 -0.1 0  0.2499999999991446 -0.1 0  0.2999999999990088 -0.1 0  0.3499999999988296 -0.1 0  0.3999999999986936 -0.1 0  0.4499999999985143 -0.1 0  0.4999999999984002 -0.1 0  0.5499999999985247 -0.1 0  0.5999999999986493 -0.1 0  0.6499999999987955 -0.1 0  0.6999999999989417 -0.1 0  0.7499999999990659 -0.1 0  0.7999999999992116 -0.1 0  0.8499999999993573 -0.1 0  0.8999999999994526 -0.1 0  0.949999999999584 -0.1 0  0.9999999999997226 -0.1 0  1.049999999999861 -0.1 0  1.1 -0.0500000000000906 0  1.1 -1.730560139634463e-13 0  1.1 0.04999999999975802 0  1.1 0.09999999999961506 0  1.1 0.1499999999994613 0  1.1 0.199999999999302 0  1.1 0.2499999999991446 0  1.1 0.2999999999990088 0  1.1 0.3499999999988296 0  1.1 0.3999999999986936 0  1.1 0.4499999999985143 0  1.1 0.4999999999984002 0  1.1 0.5499999999985247 0  1.1 0.5999999999986493 0  1.1 0.6499999999987955 0  1.1 0.6999999999989417 0  1.1 0.7499999999990659 0  1.1 0.7999999999992116 0  1.1 0.8499999999993573 0  1.1 0.8999999999994526 0  1.1 0.949999999999584 0  1.1 0.9999999999997226 0  1.1 1.049999999999861 0  1.05000000000004 1.1 0  1.000000000000079 1.1 0  0.9500000000001624 1.1 0  0.9000000000003032 1.1 0  0.850000000000444 1.1 0  0.8000000000005848 1.1 0  0.7500000000007256 1.1 0  0.7000000000008665 1.1 0  0.6500000000010508 1.1 0  0.6000000000012352 1.1 0  0.5500000000014196 1.1 0  0.500000000001539 1.1 0  0.4500000000014195 1.1 0  0.4000000000013 1.1 0  0.3500000000011588 1.1 0  0.3000000000010178 1.1 0  0.2500000000008986 1.1 0  0.2000000000007579 1.1 0  0.1500000000006174 1.1 0  0.1000000000005272 1.1 0  0.05000000000040083 1.1 0  2.671196597248127e-13 1.1 0  -0.0499999999998666 1.1 0  0.5298696049032749 0.5497100448432627 0  0.5534846013129142 0.5339925925098753 0  0.5608539617329362 0.5064410082090164 0  0.5616707575017038 0.4784731225725127 0  0.5606448352367577 0.4506729844836363 0  0.5575863549836583 0.4230161644462387 0  0.5521271427025349 0.3955203601431861 0  0.5434632067998655 0.3684923114067697 0  0.5295756221064667 0.3432729058061881 0  0.5069467155040033 0.3258226530179241 0  0.4795206305400948 0.325847868632529 0  0.4537141131087667 0.3335550875017712 0  0.4290949649684451 0.3435950010654786 0  0.4051549756650819 0.3548936663329428 0  0.3817344639612139 0.3670191048189315 0  0.358739739575287 0.3797784111495677 0  0.3361060287023544 0.393062980712042 0  0.3138810999146097 0.406897700759769 0  0.2920904593987975 0.4213419670574119 0  0.2708889465958791 0.4365482326690074 0  0.2507308197225384 0.4529887594216054 0  0.2334474024060461 0.4723435877530502 0  0.2382206592828713 0.4956774269830067 0  0.2625281472455414 0.5094751184506809 0  0.2883769856461111 0.5192885857179007 0  0.314594480740124 0.5272335906544083 0  0.340994984176982 0.5339360132586377 0  0.3675081707920222 0.5396583208806481 0  0.3941218152316042 0.5444679707483473 0  0.4208633271950157 0.548383025034285 0  0.4477404011067859 0.5513635433537192 0  0.4748265424698796 0.553225241601491 0  0.5353912226452042 0.4387956918961955 0  0.404741128666621 0.383876143609592 0  0.4398716340660753 0.5241685667587049 0  0.3374920478989996 0.4203243053278318 0  0.3822647312654189 0.5183060371485221 0  0.4527564705437328 0.3631721493068336 0  0.4899249022088543 0.5280425806619176 0  0.3308599848712129 0.507310176311161 0  0.5245462027241075 0.3868984944866097 0  0.2956886230691594 0.4489340961317027 0  0.5361419777428038 0.4918970500101945 0  0.4995918672697317 0.3485203570379942 0  0.2811538441355293 0.4916229309034564 0  0.2570249082429051 0.4808737317780096 0  0.5334353257603287 0.5195941544277702 0  0.5078177324906277 0.5057372924970857 0  0.5141243772524051 0.4759985162292134 0  0.4884846570637996 0.485584996158488 0  0.4923351783272779 0.4583596398881157 0  0.466931074504798 0.4673700985130848 0  0.4711091589176003 0.439341688996107 0  0.4454563862496757 0.4486719632463289 0  0.4493366071968634 0.4206626258062565 0  0.4238686961496926 0.4298685747112749 0  0.4199608681931528 0.4579158819661617 0  0.3985320604996682 0.4389248383585431 0  0.4749942726163237 0.4113407253691304 0  0.3949056387508594 0.4666195231574954 0  0.3744922307050198 0.4479804545414822 0  0.3711791657268972 0.4742912093261227 0  0.4156201869736666 0.4860435134873192 0  0.3789281027187716 0.4209515770996896 0  0.3507837731739419 0.4566334910215709 0  0.4603183411944219 0.4975876137962165 0  0.4522014503318441 0.3926037824596664 0  0.4756583655573808 0.3830957916907772 0  0.4954544615162735 0.4316651723361313 0  0.4412903209385997 0.4768041625022518 0  0.5030836466170574 0.4044949413639601 0  0.4270961202890461 0.4021563328573604 0  0.4025050779710337 0.4115682947260565 0  0.411488768832154 0.5163746489816643 0  0.3564953757054347 0.513485772161213 0  0.4656945000409223 0.5269605022348978 0  0.315781139864812 0.4335313593420969 0  0.323168955652031 0.4606631172139864 0  0.4285486502273007 0.3733989197130994 0  0.3465565198016326 0.4851384378700939 0  0.3058659086868374 0.5010664904641166 0  0.2758125129471568 0.4643719469020106 0  0.3807810535540321 0.3945664363873702 0  0.5317435503524265 0.4125825004719063 0  0.5373046719857725 0.4647248620253832 0  0.3922354226089044 0.4929135519838202 0  0.2989936968831914 0.4753537034677274 0  0.5196230072101681 0.3651972248479211 0  0.3584808502032505 0.4064777105326329 0  0.4770117203066006 0.3555110163610996 0  0.4349946728435994 0.5000875707029944 0  0.5003630416712911 0.3762726288843385 0  0.5154416385613324 0.4502259046247329 0  0.3211206234199599 0.4859262100552386 0  0.3566560934873288 0.4316250238035076 0  0.4816478384624772 0.5078161052992688 0  0.5120860838012282 0.5315861817763209 0  0.3697745789268017 0.4968448307215903 0  0.5162590790739735 0.4275648784022585 0  0.3347692868330192 0.4409780708099113 0  0.5639723337094192 0.3762659346814594 0  0.580135419024698 0.4647511327658963 0  0.3498960664682122 0.5547603988605001 0  0.5159697103458073 0.5696486971610221 0  0.9736319727425554 0.69790922820765 0  0.6402327203500146 0.9796573448645257 0  0.4310315963564748 0.5694180070118057 0  0.9819124832963462 0.5374353594822333 0  0.9707477409091366 0.2781815413041587 0  0.2856920327549343 0.9683238201495595 0  0.3364185738198318 0.3679069261961939 0  0.4074326687781379 0.3290605406032959 0  0.4398072021753372 0.9768975664898515 0  0.2701047298194602 0.530679399057599 0  0.0609281500724526 0.7445306065472502 0  0.695026951221666 0.05218580434125768 0  0.2675090615955559 0.4113103742209531 0  0.5750296605361137 0.5233678825123665 0  0.7956024790763474 0.978973159145694 0  0.2401830708060815 0.05370172838984501 0  0.06108575806266196 0.2420306393195101 0  0.2279610907804361 0.4468649735250689 0  0.5483681505301752 0.05849488985506884 0  0.3966757071996715 0.05493711766648998 0  0.8390607464876989 0.04815819838775915 0  0.2164198771197239 0.4858537471098263 0  0.4620698073083122 0.3122174731428315 0  0.06063132461306314 0.5912767916339605 0  0.9804068115250836 0.8446991962899159 0  0.0586592362148954 0.3399637208298164 0  0.5689259275338906 0.5480144581593238 0  0.591016513907707 0.5386940045162034 0  0.585
[...]
<PointData  Scalars="v"> 
<DataArray  type="Float64"  Name="v"  format="ascii">-4.1795717875171768e-20  -1.4602304381273912e-21  5.0703691580990636e-20  2.5300050930011239e-20  -1.1082316644344886e-21  1.9853262778099485e-21  -2.0083274346610593e-21  7.2744190779511977e-22  2.7513378370239171e-02  8.8844542658970763e-20  -1.4178014620697154e-19  0.0000000000000000e+00  3.4983496302708365e-19  -1.3943947688899501e-19  0.0000000000000000e+00  5.7700930561992137e-19  -7.8307239204813333e-20  9.9995202788151387e-21  -2.0987003983418519e-19  1.2965887852247506e-18  -4.7405720880689486e-19  4.9568794722226754e-20  -7.8334012917811908e-20  2.4767334334246894e-19  1.4273197974661742e-20  -3.0630176936976272e-19  1.1159060021112554e-19  -3.7032325319655083e-20  9.8232254103550090e-20  0.0000000000000000e+00  0.0000000000000000e+00  3.7589035598857649e-19  -8.2077395278432815e-20  -1.7336727075361773e-20  -2.1178059224783145e-19  1.0155224640304499e-20  -2.4541624081789366e-19  -2.1467354430698749e-19  -7.6248013243562394e-19  3.4922596918356571e-19  -1.6103809244811836e-19  -2.4132663341057807e-19  -4.6777141692848044e-20  1.2541418990651731e-19  2.1048535846127723e-19  -5.8865293342857637e-20  -5.1268639288859720e-20  5.2485808015263699e-20  5.0766123519800872e-20  2.1736192145487256e-19  -3.4500005256881968e-20  -3.8999994742963765e-19  2.0325987422684344e-19  -1.3732355623981950e-19  3.8482778483853031e-19  5.4652270643089058e-19  1.3564606469594845e-19  -1.8296127785112889e-19  -1.4956375206983662e-19  -2.1472857105717122e-19  -2.8548015871362137e-19  4.6639865037126629e-20  -1.2319826638917195e-19  1.6266518739315538e-19  -9.7811087132377284e-20  -4.4968363507284176e-20  4.4522982502972195e-20  -6.0164339415308320e-20  1.7143080351260161e-19  -4.9570008679153587e-20  -5.6080948534712922e-20  4.0630228350418236e-19  -7.5473196074849725e-20  1.7874231416806411e-19  3.8450089567600423e-19  2.1116124655526009e-20  1.9616263753869337e-19  2.4150055275580501e-19  4.0335381085906123e-20  5.3358139751557385e-20  9.3547397453780310e-20  -1.0905684632559165e-19  7.3332566324381689e-20  -1.4812280955892099e-20  1.0749320989787895e-20  -2.2164087058567211e-21  5.5529180137814999e-21  1.2855510075579821e-21  -9.2146597796766982e-21  9.2111765167357759e-21  2.1403100707268720e-20  2.4762104858538577e-20  5.8202800329085577e-20  4.1706909019035676e-20  2.0110082435309062e-20  -3.6225704631170262e-20  5.0783841630498531e-20  1.0443523707573397e-19  -3.3125473478676865e-21  -2.1468682755915057e-20  4.2033718583536769e-20  1.6650332143173375e-20  2.9225190866698101e-21  -2.9740131558962060e-20  1.3424384377290169e-21  3.6001846538186738e-21  -8.2489660491420974e-21  3.7568652773895191e-22  -2.4054689961406359e-21  -2.3999616232962232e-21  9.3008287349268143e-21  -1.3160283367668879e-21  1.1826325845724502e-20  3.1059290097282772e-20  1.6953829461700618e-20  -2.5778303986366694e-20  -4.0675312384907034e-20  -6.0902946753745117e-21  -1.7311255677748515e-20  -5.9478099009129587e-20  -6.8830588706650984e-20  1.0779142478400904e-20  -3.9589906160000312e-21  -3.3381560678995428e-20  -1.7535423607970725e-21  1.9084962981450533e-20  2.4199584661316916e-20  -4.0123443873727067e-21  -5.8988830994277750e-21  1.6255584650321944e-21  1.3349222705361903e-21  -2.2064074977644948e-22  4.3024496555055733e-21  4.3905984002377723e-21  1.4129012184123821e-20  2.8694308621671915e-20  -1.3875937333629718e-20  -2.9713699407428437e-20  -1.1637936152324528e-20  -3.9156878156992326e-21  4.8726618108423983e-20  7.6118221794229267e-20  1.1605640475089584e-20  -2.5288770189170738e-20  -1.3819735000663385e-20  -2.5944785363306657e-20  -3.3463514173747251e-20  -9.2564226622120902e-21  3.8817448683041963e-21  9.2787860116672035e-21  -5.0250685766215110e-21  -8.2718597582921897e-21  5.6300862076264749e-21  1.5304616374043406e-21  -2.4822680082172569e-23  8.2027008234084853e-21  1.7837374841654228e-21  4.1402836051380025e-22  1.7002248528233651e-20  -1.6014025673717311e-20  4.9640316405218472e-21  3.6143480300885725e-20  6.6130599270720696e-21  2.2648272093991339e-20  4.4619122878949980e-20  1.4029545194026633e-20  2.6504186845076858e-20  2.3849314770776186e-20  6.4782604803311512e-22  1.2167598948829678e-20  4.7794575151732084e-21  -6.6794172251790863e-21  9.3774708963022437e-21  8.1713428039635618e-22  -5.2581480226064659e-22  2.7495442000246243e-22  -8.8816668381031540e-23  2.7579608110999923e-02  2.7534229059212545e-02  2.7468809912228821e-02  2.7250068882871091e-02  2.6808503363101612e-02  2.6139403827262868e-02  2.5250362390001214e-02  2.4148751910414087e-02  2.2910152315004539e-02  2.1818910342810430e-02  2.1394213277581335e-02  2.1298125716319706e-02  2.1204539431433272e-02  2.1003998656468285e-02  2.0682570451190346e-02  2.0224682024558384e-02  1.9630804440754865e-02  1.8913973872935197e-02  1.8075234255822095e-02  1.7147851348813057e-02  1.6206117159799544e-02  1.5489456672195418e-02  1.6140715253788213e-02  1.7937943308541045e-02  1.9675291254065207e-02  2.1288155548470467e-02  2.2748005222238431e-02  2.4043339359251098e-02  2.5161629537956757e-02  2.6077173301748399e-02  2.6776323139345366e-02  2.7267448359302192e-02  2.7270335466695925e-02  2.3157055902456151e-02  2.7277178049823415e-02  2.1397815923205953e-02  2.5209946506779150e-02  2.3625526198601737e-02  2.8121921097797330e-02  2.2562130956530761e-02  2.5501345795593724e-02  1.9659460133890715e-02  2.8128118234700520e-02  2.3587612622534143e-02  1.9360531217683427e-02  1.7675351532327719e-02  2.8185923078035639e-02  2.8286297232406762e-02  2.8087134158620766e-02  2.8095355116680321e-02  2.7759516385574154e-02  2.7628358872448605e-02  2.7101565172016423e-02  2.6802460010387053e-02  2.6046403117343346e-02  2.5592274238573316e-02  2.6232194873826369e-02  2.4910942420197969e-02  2.6201285250512112e-02  2.5412054090302588e-02  2.4064825146320530e-02  2.4426626062887449e-02  2.6451112875657257e-02  2.3480270397578402e-02  2.3033577421271899e-02  2.7785054918758365e-02  2.4975261334672417e-02  2.4992479781037649e-02  2.7121623250476495e-02  2.7166758596405254e-02  2.6203288230296856e-02  2.4678610897431005e-02  2.4160758719778214e-02  2.6413905448883522e-02  2.3980415659047561e-02  2.7826236621434939e-02  2.0537135053002569e-02  2.1530716489072784e-02  2.3486837994346036e-02  2.3277758122301644e-02  2.0992217275546482e-02  1.8693077636902772e-02  2.2630159334433686e-02  2.6494537834394406e-02  2.7806967778864267e-02  2.5588401132222233e-02  2.0290954803027183e-02  2.4503330184463355e-02  2.2033977408237003e-02  2.3688067084232399e-02  2.7151572648703194e-02  2.4950112966969498e-02  2.7640907739564922e-02  2.1776393928696101e-02  2.2729798650654387e-02  2.8104919993037089e-02  2.8181639409889169e-02  2.4583497636110799e-02  2.7030612930273739e-02  2.1795317156203965e-02  2.4127881810083251e-02  2.6488137562044604e-02  2.2885124667468601e-02  2.7051181627276776e-02  1.7423695111179703e-03  1.4997922329503433e-03  2.5853898001233378e-02  1.4768292360100566e-03  1.7695963073233224e-03  1.9281240435749828e-03  1.8790267602270944e-02  1.9902544209831161e-02  1.8298329681432600e-03  1.8432006621431719e-02  3.2721525465661734e-03  3.2738151226377938e-03  1.6508367583728815e-02  2.6994059134117985e-02  1.0090373998668505e-03  2.5653470127460320e-03  2.8798792579530380e-03  1.4850348131093417e-02  4.3676641454615875e-03  3.7866213756268976e-03  1.7849025348590087e-03  1.4646422825038270e-02  2.0257068723883973e-02  4.2872085160706470e-03  7.3999822115833021e-04  3.5841075298986649e-03  2.6983279923541017e-02  2.6688114786188738e-02  2.6551451536145985e-02  2.6111969644919946e-02  2.5856325717581487e-02  2.5266929737038854e-02  2.4844772562712111e-02  2.4106813656825876e-02  2.3477932567518522e-02  2.4160666531112526e-02  2.4387475402640718e-02  2.2582757378104511e-02  2.3102501292017404e-02  2.2372770768001610e-02  2.1410196703146298e-02  2.1701462636975123e-02  1.9914094777792424e-02  1.9505324064689158e-02  2.0002767673257160e-02  2.1656632418790310e-02  1.9726513899597259e-02  2.1254854086713813e-02  1.9124974307064304e-02  2.0511143184228749e-02  1.8247763481197332e-02  1.9484426963122449e-02  1.7923099670066250e-02  1.7401528926029388e-02  1.7116123572712146e-02  1.8163014298766905e-02  1.7516871183915830e-02  1.5728075715962280e-02  1.5125058250311955e-02  1.5736491208404833e-02  1.6593765802012436e-02  1.3401139702958555e-02  1.2755223897473208e-02  1.4209693246660115e-02  1.8864691936709425e-02  1.7109155370079229e-02  1.4858414167374096e-02  1.5204503309347507e-02  1.2998594774558468e-02  1.1764161658519826e-02  1.2926299554034975e-02  1.7237390433468142e-02  1.5174183369040578e-02  1.3734266305953872e-02  2.1615529976442005e-02  1.6962658404091183e-02  1.4734291138005805e-02  1.4538758967344413e-02  1.0357374874316632e-02  1.6651335753658741e-03  9.3554053547338055e-03  1.6843824139704565e-03  1.3118114836418624e-03  1.1302859576135327e-03  1.2311883816169191e-03  1.8871456000308005e-02  1.5211741540738517e-02  1.3791441353244617e-02  1.4224446312815699e-02  1.2591844166450207e-02  1.2199066754183106e-02  1.2877950610906044e-02  2.6307842212879951e-02  1.1390673553966975e-02  1.2989888850822339e-02  1.3135209596938357e-02  1.8200460925474906e-03  1.2372711822639139e-02  1.1407848592750534e-02  1.6277433908208686e-02  1.4625924997215914e-02  1.3105826904040092e-02  8.0251522447076281e-03  1.0666296161921314e-02  2.3009401050185008e-02  1.0851979525279982e-02  1.0794136209921435e-02  1.5826629461066489e-02  1.3914040255540234e-02  1.1318677651620340e-02  1.1909619800805120e-02  1.4466389193738697e-02  1.2267485406326089e-02  1.4773786717580065e-02  1.2412354926201330e-02  1.4839270107451875e-02  1.2245729208558136e-02  1.4586884982160505e-02  1.1886201985394048e-02  1.4056948625393997e-02  1.6700368726765075e-02  1.6002055589709449e-02  1.3367791230041916e-02  1.5091915095868410e-02  1.7616960678894188e-02  1.6523933379483415e-02  1.3992804102437284e-02  1.5189874027192529e-02  1.2719421759488094e-02  1.3611719697163266e-02  1.5998767315405116e-02  1.1351950679172275e-02  1.4166275849926819e-02  2.1417985343350269e-02  1.6384007427635926e-02  1.8550824372680741e-02  1.4341305092966940e-02  1.6354824690812755e-02  1.4103081385171749e-02  1.5922215117679692e-02  1.2319473425812974e-02  1.1442343354867286e-02  1.8428239168905930e-02  1.3471084646473119e-02  1.5460187420148867e-02  1.1786076644096380e-02  1.0387412990505289e-02  9.6733399524831596e-03  6.3820218861925491e-04  7.0394787485674685e-03  5.8555079082963047e-03  1.7172459734838719e-02  2.0531250542701954e-02  2.0359025564569488e-02  1.9412175753601893e-02  2.1169677639421139e-02  6.4810044234204127e-03  9.0909531138373204e-03  1.1697924534292319e-02  9.9556384700291104e-03  1.1119700448493182e-02  2.6141551776695370e-02  8.8302117487412436e-03  1.1285543061499308e-02  1.1138949375105173e-02  8.7631217587629470e-03  1.3066936112399790e-02  9.9488904948781803e-03  1.2554461144713159e-02  1.4046666988464060e-02  1.1495591672406779e-02  1.0147664766055824e-02  9.4910869178246749e-03  9.0480651373150908e-03  1.1437803141105036e-02  1.6814670003585978e-03  8.7233940817734550e-03  1.1155047823434934e-02  9.0656625298786968e-03  1.0818757334808901e-02  1.4905368807802072e-02  1.9855576609743977e-02  8.4807441372158430e-03  8.3399286024844494e-03  8.8509367181954703e-03  8.3244991098437911e-03  4.9374259066864868e-03  5.7049764686001245e-03  4.0179456820435677e-03  2.4370299613198296e-02  6.6236841021734697e-03  6.9913044941583386e-03  1.1313680914824294e-02  1.8909816332995644e-02  1.9953095491339147e-02  2.1067034931986285e-02  2.1983822685975353e-02  2.2917968996131376e-02  2.3675638222278663e-02  2.2645695916485086e-02  2.4395986683832801e-02  2.3509272372556036e-02  2.4717963607536295e-02  2.3743442349979195e-02  2.2396096933781327e-02  2.2647103823897521e-02  1.1246578329532247e-02  1.2674664785460072e-02  9.6351386030365544e-03  6.8090407153434417e-04  7.6434869829545009e-04  2.0668751339528262e-02  1.8839030668374415e-02  1.5233750324941803e-02  1.3783869230547901e-02  1.1244436324149322e-02  1.2305987938210243e-02  1.4704045190436499e-02  1.3161642462122111e-02  1.5773347782498521e-02  1.3855348622662389e-02  1.5986492488999780e-02  1.4173535251821677e-02  1.2040391344777265e-02  1.2316556868406714e-02  1.4291293495473536e-02  1.2360583357019136e-02  1.4109038797292478e-02  1.2113172226788397e-02  1.3627113368503887e-02  1.1554105502686375e-02  1.0078239214259157e-02  1.2850540547972439e-02  1.0691056494029138e-02  1.0093919776676641e-02  1.1768545942919281e-02  9.5418374322953289e-03  8.6367186060597768e-03  1.6346770029220237e-02  1.4925604773693675e-02  1.0524551040785528e-02  2.2109585473980627e-02  7.4757931722976853e-03  6.6391702605348331e-03  6.9674252006345049e-03  6.5941753815789419e-03  1.0459264248495002e-02  1.2908920269204720e-02  8.0236132788856392e-03  1.2462614588198582e-02  1.0676802950471005e-02  7.1588462544927281e-03  2.1202729441310984e-02  1.7583724399998984e-02  1.7715528045974722e-02  2.4722439035009300e-02  2.4991339329392005e-02  6.8564230542634916e-03  4.3574541717583985e-03  2.1274290325352722e-02  4.5672358394731853e-04  9.9163386830041968e-03  8.2638441969126314e-03  7.2876466072856420e-03  5.8272513251425547e-03  1.2671751242041267e-02  1.9180956594071888e-02  9.6055177687406935e-03  7.6196260909977180e-03  8.1386689321691942e-03  5.0714516040045584e-03  5.2431319312656651e-03  3.6488019532862582e-03  3.4927026273476177e-03  4.7426987046321565e-03  3.7078085458050782e-03  4.1507998799105404e-03  6.3404615900117004e-03  6.2513857397202520e-03  8.5329858195935457e-03  5.7070444091200405e-03  7.8116527468510381e-03  5.0561680069377115e-03  7.0201237666249151e-03  1.6282665694396653e-02  1.6555203744668810e-02  1.5039002066932924e-02  1.7916764520702545e-02  1.8010192672499137e-02  1.9466716581981302e-02  1.9446912600834868e-02  2.0831443565770956e-02  2.0770310881195901e-02  2.2118062529429484e-02  2.1892890787074040e-02  2.3256502274451338e-02  2.2967915325915678e-02  2.4251473386410410e-02  2.3789468818667271e-02  2.5135505253967856e-02  2.4364672711554920e-02  2.5450762152418607e-02  2.4570316528001651e-02  2.5597918963005069e-02  2.2895807218126001e-02  2.6230301674117266e-02  2.6302128520324312e-02  2.5522967693520429e-02  2.6210121544535697e-02  1.0574275139082510e-02  7.1199743885265463e-03  1.3315530425910176e-02  6.6508064364626269e-03  2.4310244985085664e-02  1.9664687865914757e-02  9.0981752408034917e-03  9.2681636648719971e-03  5.1256737423167669e-03  1.2861846015331841e-02  1.9416558645972117e-02  5.8826868874392738e-03  6.4537717092388348e-03  1.8369587462364445e-02  1.8915331418479075e-02  1.1050931639949507e-02  1.4274609134414577e-02  2.0624149874091488e-02  2.7368607674622064e-03  8.3559078412707884e-03  4.4060617507382382e-03  2.4273447749634893e-03  2.6013445421048914e-02  3.0084618305006071e-03  2.0809786334404182e-02  5.7878297795416677e-03  6.3470817733965049e-03  8.3751986825149217e-03  6.5316514341034913e-03  4.5024306006886229e-03  2.5519919588808095e-02  7.0331429122001644e-03  2.3636322200225109e-02  2.1528788415012431e-02  2.7074612684335454e-02  1.8311333514054239e-02  5.1614873559958675e-03  2.0906795243314409e-03  2.6629589905357787e-02  4.2545117075105188e-03  6.6972747689628756e-03  4.1873695417230334e-03  2.5360355674616874e-02  2.6819909038576631e-02  2.6308611801675107e-02  1.8828770726092309e-02  1.7772622413004938e-02  1.9108615360817021e-02  4.6826385596896647e-03  6.0587052961613933e-03  3.4299770485146795e-03  4.4176942824529011e-03  1.7845249509041355e-02  4.3822030927981575e-03  6.1333341597034447e-03  3.6310208297759736e-03  5.1335357409719000e-03  7.4379614689132900e-03  6.2038047197177136e-03  4.0997669626231768e-03  4.7929818344375789e-03  6.8520007995906346e-03  2.9977454777751571e-03  5.0903697659419184e-03  7.0239803435235681e-03  4.8258211178593769e-03  6.6484000783250292e-03  8.9441798676977036e-03  2.5556572338844327e-02  1.5659181408731428e-02  1.5402603425809774e-02  1.6183943481881825e-02  1.4397095893392040e-02  1.7930481943299825e-02  1.5913532762177478e-02  1.7466197395127201e-02  1.6859929157317478e-02  1.6021465689908268e-02  1.7346766186297997e-02  1.8222651140883332e-02  2.3045300738693444e-02  8.1883779488054441e-03  6.4539442699621807e-03  7.8519573332943154e-03  7.0118688091068216e-03  4.5907968944221278e-03  1.8313829120272435e-02  2.5135701904331929e-02  1.6232884209930424e-03  4.7669228130980150e-03  1.4228247811911404e-02  3.2671623679666473e-03  5.5512302958576915e-03  4.6383952619509141e-03  2.3413693221101118e-03  3.8195029622833400e-03  5.8289736346501522e-03  4.4994061203464403e-03  2.8535010619034473e-03  1.3188110172099503e-03  6.7143859169425555e-03  1.9430931856872578e-02  2.0883684376689984e-02  2.0387011521688043e-02  1.7629582885250343e-02  4.1838745428430732e-03  1.7337721400792722e-02  1.1495251050213233e-02  1.2135609621390988e-02  2.0001395746985562e-02  1.8528924803909431e-02  1.9507192569253110e-02  1.7189711484455986e-02  1.9397985749856225e-02  1.9178689855875810e-02  2.1278239240821506e-02  2.1286391201347152e-02  2.0907210256379150e-02  1.8723843658036334e-02  2.0402914392006366e-02  2.3087891806414719e-02  1.8126814405870204e-02  2.6417721022858266e-02  2.2484884922549620e-02  2.4276172389166295e-02  1.3942677474701798e-03  4.0502291872845046e-03  2.2270549515132066e-02  1.3717914492283399e-02  1.6027643472803981e-02  1.9059473993641746e-03  8.4103614538468974e-03  1.8395771414700893e-03  1.9529382135673728e-03  9.0502905464364646e-03  8.5445929930682181e-03  3.6008533171691570e-03  3.3276445773224327e-03  5.2823611902342192e-03  1.6152849145318539e-02  1.9665621910430028e-02  1.9287321439907749e-02  1.8754122299670651e-02  1.9016228303280855e-02  2.1688699368286574e-02  2.1951792530296699e-03  3.6516937850909121e-03  4.5323669708829274e-03  1.6004210081850091e-02  3.9995593104205094e-03  7.3504191971876512e-03  6.8905681674414684e-03  2.3996558671359413e-03  2.3159165087882086e-02  6.6465082450124086e-03  1.7778737653370905e-02  2.4175520414679408e-02  1.6095568347405281e-03  1.7123174236848874e-03  1.6495724850584092e-03  8.8842643662406500e-03  2.2573342454370541e-02  1.2434013299525276e-03  1.5795530632135461e-02  8.0244689418911604e-03  4.2655594694584057e-03  1.3377017836252027e-02  8.5486588847986868e-04  1.1327324262905183e-02  6.1987002230594760e-03  1.2576057520534642e-03  8.6696003336436157e-04  2.7026847047348589e-03  1.8303729226243420e-03  1.1243475690533413e-03  1.8981977479921388e-02  1.4845339805747539e-02  1.0621234640208612e-02  2.5195394682798362e-02  1.3924011938107293e-02  6.0769701130845637e-04  1.8533058685912531e-03  3.8183548316393142e-03  1.8091329162708232e-02  1.1317440030292825e-02  2.0803321386277756e-02  9.9545908449558823e-04  3.1115719282750046e-03  2.9335935046407176e-03  4.3478996591662118e-03  7.3461891077427413e-03  9.3382592159519592e-03  1.4046711239616158e-03  1.6571499547023357e-02  8.7063617588651436e-03  2.5367005635052915e-02  2.3531991869003073e-02  1.6895227126904801e-02  7.1485919023684856e-03  1.2480487155668615e-02  4.5241986997771140e-03  2.4081664460904584e-02  1.0391231978154575e-02  1.0458163181556630e-02  2.2915378101472133e-02  4.4841814926384017e-03  6.1066431740322159e-03  9.8211193408929438e-03  8.9832144017080000e-03  1.5796463723012258e-02  1.2094906182732743e-02  1.9867965662503598e-02  1.1034298252268317e-02  1.6790878942050915e-02  6.0486000649963186e-03  6.5316673028947671e-03  2.1585445907575961e-02  1.7966826510814601e-02  1.4156190900736240e-02  2.6776107075279724e-02  2.6643431049598768e-02  2.5997353189856333e-02  2.2702096482142479e-03  2.5220536758281636e-03  4.3619258199330910e-03  1.3256493316571092e-02  1.3029703711552351e-03  6.9214801841635477e-04  4.5477601925170367e-03  9.9653013883817102e-04  3.5546798646042934e-04  1.1449952135736238e-02  1.3850111044315242e-03  2.5072966050897254e-02  3.9382106408469199e-03  1.0672062662881608e-02  2.5918305629854012e-