<?xml version="1.0"?>
<VTKFile type="UnstructuredGrid"  version="0.1"  >
<UnstructuredGrid>
<Piece  NumberOfPoints="1242" NumberOfCells="2386">
<Points>
<DataArray  type="Float64"  NumberOfComponents="3"  format="ascii">0 0 0  0 1 0  1 1 0  1 0 0  1.1 -0.1 0  -0.1 -0.1 0  1.1 1.1 0  -0.1 1.1 0  0.4977654574422997 0.5058573200171409 0  0.5941518528243005 0.7316529441142583 0  0 0.9499999999997918 0  0 0.8999999999995836 0  0 0.8499999999996529 0  0 0.7999999999999998 0  0 0.7500000000003466 0  0 0.7000000000006934 0  0 0.6500000000010401 0  0 0.6000000000013869 0  0 0.5500000000017335 0  0 0.5000000000020587 0  0 0.4500000000018723 0  0 0.4000000000016644 0  0 0.3500000000014564 0  0 0.3000000000012483 0  0 0.2500000000010403 0  0 0.2000000000008322 0  0 0.1500000000006241 0  0 0.100000000000416 0  0 0.05000000000020799 0  0.04999999999989965 0 0  0.09999999999981467 0 0  0.1499999999997036 0 0  0.1999999999995579 0 0  0.2499999999994121 0 0  0.2999999999992664 0 0  0.3499999999991206 0 0  0.3999999999989749 0 0  0.4499999999988292 0 0  0.4999999999986943 0 0  0.5499999999988151 0 0  0.5999999999989468 0 0  0.6499999999990784 0 0  0.69999999999921 0 0  0.7499999999993417 0 0  0.7999999999994734 0 0  0.8499999999996051 0 0  0.8999999999997368 0 0  0.9499999999998684 0 0  1 0.04999999999989965 0  1 0.09999999999981467 0  1 0.1499999999997036 0  1 0.1999999999995579 0  1 0.2499999999994121 0  1 0.2999999999992664 0  1 0.3499999999991206 0  1 0.3999999999989749 0  1 0.4499999999988292 0  1 0.4999999999986943 0  1 0.5499999999988151 0  1 0.5999999999989468 0  1 0.6499999999990784 0  1 0.69999999999921 0  1 0.7499999999993417 0  1 0.7999999999994734 0  1 0.8499999999996051 0  1 0.8999999999997368 0  1 0.9499999999998684 0  0.9499999999997918 1 0  0.8999999999995836 1 0  0.8499999999996529 1 0  0.7999999999999998 1 0  0.7500000000003466 1 0  0.7000000000006934 1 0  0.6500000000010401 1 0  0.6000000000013869 1 0  0.5500000000017335 1 0  0.5000000000020587 1 0  0.4500000000018723 1 0  0.4000000000016644 1 0  0.3500000000014564 1 0  0.3000000000012483 1 0  0.2500000000010403 1 0  0.2000000000008322 1 0  0.1500000000006241 1 0  0.100000000000416 1 0  0.05000000000020799 1 0  -0.1 1.05000000000004 0  -0.1 1.000000000000079 0  -0.1 0.9500000000001624 0  -0.1 0.9000000000003032 0  -0.1 0.850000000000444 0  -0.1 0.8000000000005848 0  -0.1 0.7500000000007256 0  -0.1 0.7000000000008665 0  -0.1 0.6500000000010508 0  -0.1 0.6000000000012352 0  -0.1 0.5500000000014196 0  -0.1 0.500000000001539 0  -0.1 0.4500000000014195 0  -0.1 0.4000000000013 0  -0.1 0.3500000000011588 0  -0.1 0.3000000000010178 0  -0.1 0.2500000000008986 0  -0.1 0.2000000000007579 0  -0.1 0.1500000000006174 0  -0.1 0.1000000000005272 0  -0.1 0.05000000000040083 0  -0.1 2.671196597248127e-13 0  -0.1 -0.0499999999998666 0  -0.0500000000000906 -0.1 0  -1.730560139634463e-13 -0.1 0  0.04999999999975802 -0.1 0  0.09999999999961506 -0.1 0  0.1499999999994613 -0.1 0  0.199999999999302 -0.1 0  0.2499999999991446 -0.1 0  0.2999999999990088 -0.1 0  0.3499999999988296 -0.1 0  0.3999999999986936 -0.1 0  0.4499999999985143 -0.1 0  0.4999999999984002 -0.1 0  0.5499999999985247 -0.1 0  0.5999999999986493 -0.1 0  0.6499999999987955 -0.1 0  0.6999999999989417 -0.1 0  0.7499999999990659 -0.1 0  0.7999999999992116 -0.1 0  0.8499999999993573 -0.1 0  0.8999999999994526 -0.1 0  0.949999999999584 -0.1 0  0.9999999999997226 -0.1 0  1.049999999999861 -0.1 0  1.1 -0.0500000000000906 0  1.1 -1.730560139634463e-13 0  1.1 0.04999999999975802 0  1.1 0.09999999999961506 0  1.1 0.1499999999994613 0  1.1 0.199999999999302 0  1.1 0.2499999999991446 0  1.1 0.2999999999990088 0  1.1 0.3499999999988296 0  1.1 0.3999999999986936 0  1.1 0.4499999999985143 0  1.1 0.4999999999984002 0  1.1 0.5499999999985247 0  1.1 0.5999999999986493 0  1.1 0.6499999999987955 0  1.1 0.6999999999989417 0  1.1 0.7499999999990659 0  1.1 0.7999999999992116 0  1.1 0.8499999999993573 0  1.1 0.8999999999994526 0  1.1 0.949999999999584 0  1.1 0.9999999999997226 0  1.1 1.049999999999861 0  1.05000000000004 1.1 0  1.000000000000079 1.1 0  0.9500000000001624 1.1 0  0.9000000000003032 1.1 0  0.850000000000444 1.1 0  0.8000000000005848 1.1 0  0.7500000000007256 1.1 0  0.7000000000008665 1.1 0  0.6500000000010508 1.1 0  0.6000000000012352 1.1 0  0.5500000000014196 1.1 0  0.500000000001539 1.1 0  0.4500000000014195 1.1 0  0.4000000000013 1.1 0  0.3500000000011588 1.1 0  0.3000000000010178 1.1 0  0.2500000000008986 1.1 0  0.2000000000007579 1.1 0  0.1500000000006174 1.1 0  0.1000000000005272 1.1 0  0.05000000000040083 1.1 0  2.671196597248127e-13 1.1 0  -0.0499999999998666 1.1 0  0.6181251419219117 0.7208576500630901 0  0.6408786138621079 0.7070047464846417 0  0.6622389670619863 0.6900472985867946 0  0.6814691575944688 0.670493052825728 0  0.697865992501532 0.6486661775794781 0  0.711586712031873 0.6254144133901473 0  0.7225068478754887 0.6010553214548431 0  0.7304890704577632 0.5760304601502688 0  0.73604614069148 0.5507755592951774 0  0.7392028361515892 0.5254738704587419 0  0.7396349322934251 0.5003395099211653 0  0.7382224247943336 0.4754783382211752 0  0.7345798917447743 0.4509652916207506 0  0.7288650322031962 0.4269873212939138 0  0.7215065947790879 0.4034169085953688 0  0.711644867680737 0.3803842714031301 0  0.6993882108731526 0.3581340138963197 0  0.6847600359452906 0.3367287500274045 0  0.6676977099345748 0.3165938510077423 0  0.6482917495980913 0.2982723002584139 0  0.6267594257060238 0.2822807153152514 0  0.603333735896221 0.2689883499716433 0  0.5785018919522561 0.258710469671769 0  0.5527524272901878 0.25150028967065 0  0.5265624823972257 0.2476574861989292 0  0.5005752843145818 0.2470005606563617 0  0.4754382939173522 0.2489741931292285 0  0.4518271648092114 0.2524334609606012 0  0.4291989685350913 0.257520816850055 0  0.4074350349752451 0.2649429189716146 0  0.3868069545247235 0.2747520522479482 0  0.3676635845185224 0.286491028192597 0  0.349691359207762 0.2995514937058986 0  0.3329125136315987 0.3143235922654396 0  0.3168858233264428 0.3305606774101035 0  0.301936712415288 0.3486050090250636 0  0.2881987991525917 0.3682842021747397 0  0.2759548525151264 0.3897369418696651 0  0.2652095822511486 0.4128349975585396 0  0.2564128108421879 0.4374847567524818 0  0.250377352075374 0.4635623765555349 0  0.2473946977892454 0.4907284249061458 0  0.2475856044654896 0.5181539733124033 0  0.2514939453622537 0.5452265477548591 0  0.2585370639188121 0.5717902763582319 0  0.2688567992302198 0.5972273259924088 0  0.2817056271281699 0.6211183114658231 0  0.2967155512923172 0.6430019527131045 0  0.3132501738932297 0.6629822394492201 0  0.3307227373135087 0.6808806991049362 0  0.3493511442504589 0.6966168269660616 0  0.3690492039940926 0.7103558594913096 0  0.3894749448382007 0.7220599657448347 0  0.4104784596556315 0.7316231236651618 0  0.4321544755269273 0.7389136685842792 0  0.4542840021985802 0.7442356902621808 0  0.4765883378895298 0.747526751642048 0  0.499208348519467 0.7487978931352703 0  0.5223382138641121 0.7480548531917621 0  0.54596135512884 0.7450072728396556 0  0.5697832566778146 0.7395381226653424 0  0.2788191555343 0.4381131220718544 0  0.3191256110789222 0.6303928805069423 0  0.6425762229652261 0.6825691258705125 0  0.705966922011667 0.5845029760754236 0  0.5600599851018748 0.7147736918895919 0  0.4907642535027329 0.7220200727108184 0  0.3087612649458197 0.3784016074542369 0  0.3556214334880256 0.3288060457926852 0  0.4092501299677997 0.2916963792468189 0  0.3727611809921751 0.6792455822113993 0  0.6048056503217591 0.2927270764286641 0  0.4932949830190556 0.2687054700846557 0  0.6725921039624134 0.3575780483504495 0  0.7034144813096702 0.4206021001641699 0  0.4283906495142926 0.708588967817213 0  0.7186820837816263 0.5147492802234717 0  0.2793834032982572 0.5736544290688581 0  0.2652284579116534 0.5059713566700925 0  0.4494431345811647 0.2760329305464866 0  0.714726174762906 0.4680532793706921 0  0.6867059910985791 0.6301188627782284 0  0.5411658975494483 0.2706837384603439 0  0.5996700025622365 0.7065866589392138 0  0.6438640648764375 0.3206591331856209 0  0.3725799317784338 0.3146192425987144 0  0.3784724519306796 0.3434682569322239 0  0.3594755770073794 0.3579876295489146 0  0.3823482716799886 0.3737200143891664 0  0.4022134614493392 0.3573325671839748 0  0.4033006577825323 0.3862369660155304 0  0.3865026077816515 0.4061474103642093 0  0.4287557912956048 0.3741060045060244 0  0.418932147933572 0.4222662659960452 0  0.389288213083747 0.4484423311855644 0  0.4577731748203915 0.4143690452047639 0  0.4696718513172726 0.3639002176737149 0  0.5002330900599556 0.4102366400549246 0  0.514543647767508 0.362236969883768 0  0.5439090341974897 0.4048933194422007 0  0.5603767112729734 0.3581664018833092 0  0.5912431373944368 0.3965290455676457 0  0.5743219759166975 0.4401306290864267 0  0.6250449877877599 0.4322953020638038 0  0.6043718021944809 0.4727372284758331 0  0.6441694246496427 0.4647910498406553 0  0.6357220834649738 0.5058748741083779 0  0.5905749012499476 0.5145938959158436 0  0.6236435344416528 0.5466755792849962 0  0.5779347840742918 0.5582227082037383 0  0.6099187479909007 0.5899122164636683 0  0.5635486779735204 0.6029427294050373 0  0.5915017839474573 0.6298684139168205 0  0.5578151394221958 0.6483260846077205 0  0.5295318505866151 0.622455498912867 0  0.6248448891973905 0.6221978761168138 0  0.5947267593068787 0.3655433083844468 0  0.3643978503626305 0.4246418277979442 0  0.3589618789985087 0.4622967808986984 0  0.3900906691583872 0.4929558850917289 0  0.3566567149504617 0.5103548214368701 0  0.3885706527991621 0.5374216128686027 0  0.3594381373299991 0.554969978603386 0  0.3842707246611097 0.5853406774431119 0  0.3331173768825706 0.5346970890566662 0  0.417495287123168 0.5635198485233786 0  0.4130406653442134 0.612552106668917 0  0.4547595079549048 0.5849607362006065 0  0.4414126521283683 0.6320988097611961 0  0.3306137562437305 0.4435107993507327 0  0.5319964571609472 0.3375654138048692 0  0.6514319429826887 0
[...]
<PointData  Scalars="v"> 
<DataArray  type="Float64"  Name="v"  format="ascii">6.7346185020269529e-21  1.1135185772253431e-19  2.3922267993434311e-19  2.5753933696741373e-20  -1.3448090051105148e-21  3.2020894258116763e-23  -7.2608717378106006e-22  -6.1574922054253685e-21  3.5344983175949785e-04  2.9730509137714000e-04  -4.3460621056458210e-21  1.4887162169169247e-19  3.3916713866771233e-19  9.5817246637395379e-19  -4.5042986371901767e-19  2.9955423412154209e-19  1.1579405015509888e-18  1.4435964062467986e-18  8.0230579780319144e-19  2.7310264797777326e-19  3.6256373826410379e-18  1.5905686221578265e-18  7.5136997943448972e-19  7.8810953297907688e-19  0.0000000000000000e+00  6.4806747552117514e-19  -1.3842336699684932e-19  7.3898340638934848e-20  -1.2829324775341525e-20  4.7212760132949685e-20  6.8032665338892795e-20  -2.0440644863581816e-19  5.6689988393053860e-19  4.9290235717599733e-19  1.3121040105619460e-20  2.3287675248311430e-18  9.6299221785257201e-19  4.1756888297959680e-19  5.0912669283354628e-19  3.6906881679951677e-19  5.1987293552770459e-19  -7.1114619624407160e-19  -5.3076759813917997e-20  -9.1745790368647334e-19  2.0121343918333533e-19  2.8900092164148275e-19  -1.6629681395481700e-19  -3.1746119325346502e-19  -3.3887244501112457e-19  4.3301050204215915e-19  1.6356567138095346e-18  -1.7453582473244214e-18  -6.0971360519442585e-19  6.4487480458565330e-19  -1.1355151124344047e-19  -1.0313719162642702e-17  -2.8230008188842613e-18  3.7682978434430896e-18  -4.5298936490759619e-18  4.5697362678760891e-19  -2.4290537557072312e-20  1.1567638348795767e-19  -2.9150589269431054e-18  1.3316304084430521e-18  1.8157289180701729e-18  -1.2311989361129717e-18  -8.1418166827739439e-20  8.4659050156885791e-19  1.1181182646126973e-19  2.9412546986236237e-19  -5.9881244258318147e-19  -3.2364447242366689e-19  4.8006093173017793e-18  2.1475459973083897e-19  5.2430547826325914e-18  -5.1284817279456856e-18  -2.1929422545641765e-18  4.5772647627303085e-18  -1.4266669943673146e-18  -8.1131930531336620e-20  -3.9616290204082525e-18  5.8804969919031578e-19  2.8794655380839860e-19  2.1930415439874221e-18  2.7457347832809664e-19  2.4204696851663399e-19  2.5270588882751487e-21  1.1957368606624980e-20  3.2928466568542874e-22  2.1368189007365196e-21  9.1385944525599151e-20  6.3430509571452186e-20  -2.9286126669504362e-20  -2.9630966076979413e-20  1.6599837437917015e-19  2.3438484566917254e-19  8.5583948897401205e-20  1.1174450747152937e-19  3.9811708827121744e-19  2.8950520541572878e-19  1.0879839084890974e-19  1.6622795943190999e-19  4.7793179927133484e-20  3.5662361065097964e-20  -1.2666095500111885e-20  2.4339097495381754e-21  -1.2949304993749541e-21  2.3733219550861349e-22  3.6954578285342286e-22  -1.6638853916705521e-21  7.3347723954808812e-21  1.2103920331386098e-20  -9.0125753139376368e-21  1.1385877769209385e-20  1.7505699453089336e-20  -4.1475556456793417e-21  4.9899376150857379e-20  2.2791692528423232e-19  1.9282974703171793e-19  5.8834024724886719e-20  5.8241845288581683e-20  5.8208882203165777e-20  4.1135557152326736e-20  -3.4733826206125029e-20  -6.2263898006815830e-20  -6.7284830620334502e-20  1.4882259487082232e-21  5.3459255533748290e-20  -2.8565424715114515e-20  -3.3269953663239695e-20  -5.2538719483679754e-21  5.4272237461254380e-21  -3.3402436217560000e-21  7.5099795961722442e-21  3.7555595309010681e-20  3.2935128836412175e-20  1.7505364200758632e-20  -1.7716030906101888e-21  -4.1345431938516271e-20  -2.2507726207074768e-20  1.3893478993133920e-20  3.3860820395046068e-20  -1.5190493805839767e-20  -4.8192180320580655e-20  -1.9945524613436160e-20  -1.1071134393767867e-20  -3.3314357809638862e-21  4.8550022916942579e-21  3.6206744704122694e-22  -3.8947394833831711e-20  -1.1094536255255223e-20  -4.4874107176330885e-22  -8.5119671947021503e-21  1.1412880976198428e-21  2.1876017636400181e-21  -2.5202630077584967e-21  9.0071681527704333e-21  2.0756109009300260e-20  2.6068507111413532e-20  3.1341228638894892e-20  -2.5101525528537363e-21  4.5603354883538963e-20  7.8978854012390255e-20  8.2100991789514849e-20  6.3439859367558427e-20  -7.3870633319768568e-21  -6.5650040215529912e-20  -2.1018997106735343e-21  7.0168008817022802e-22  -2.2500137578115481e-20  1.3501399139832108e-21  -2.1854500533348035e-20  1.0143203737602713e-20  3.6733873118687152e-20  3.5175471770608188e-20  -1.0085891554531502e-20  2.3451905704480417e-21  6.7338666616289730e-21  3.1018233742080863e-04  3.2467422255611471e-04  3.4017339416170104e-04  3.5713579609435105e-04  3.7465924628049622e-04  3.9239853082542850e-04  4.0632354107817293e-04  4.1859055229031454e-04  4.2712020088828205e-04  4.3224523311075872e-04  4.3466285895027163e-04  4.3172434552431004e-04  4.2420260488029596e-04  4.1356762934821747e-04  3.9891425812640371e-04  3.8080979714039386e-04  3.5830078074381691e-04  3.3410495412249022e-04  3.0415275792243903e-04  2.7566323283403991e-04  2.4875785752437736e-04  2.2312807707673254e-04  1.9936410124909038e-04  1.7892364111811570e-04  1.6256675541237258e-04  1.4978411095210246e-04  1.3966245086989020e-04  1.3128692735525917e-04  1.2453588513916211e-04  1.1872190515610747e-04  1.1497692199586655e-04  1.1313388515066337e-04  1.1189791477370906e-04  1.1096822198887016e-04  1.0986012181513175e-04  1.0911788109748544e-04  1.0785517988169525e-04  1.0661178114050468e-04  1.0580703703855504e-04  1.0528763031177838e-04  1.0629768880017577e-04  1.0956174039224764e-04  1.1462405994167098e-04  1.2300818188516318e-04  1.3422787709299448e-04  1.4598959409678347e-04  1.5944767117950076e-04  1.7368659480153522e-04  1.8608220075899109e-04  1.9616531133176461e-04  2.0515295570595367e-04  2.1339321943890035e-04  2.2043347401063643e-04  2.2748262072679986e-04  2.3500481591293956e-04  2.4203438094606169e-04  2.4934029158835391e-04  2.5712188631482993e-04  2.6557101166395467e-04  2.7511889130044212e-04  2.8586538376616105e-04  1.2488565674160780e-04  1.9775577183244882e-04  3.5821943965556023e-04  4.3655500567509623e-04  3.2085044973465161e-04  2.8773086964333281e-04  1.2794003314523479e-04  1.3483807198683544e-04  1.4067886419761628e-04  2.3517191565156041e-04  2.5571102397330792e-04  1.6375852962481450e-04  3.6480972753084943e-04  4.2627135246853292e-04  2.6183378848540793e-04  4.5494101048269289e-04  1.4929007015455247e-04  1.1739501749924005e-04  1.5319579373348528e-04  4.4992357396583625e-04  4.0628077336796951e-04  1.9083817967291089e-04  3.3724826835486584e-04  3.1243766363847750e-04  1.3646958537807285e-04  1.5458381937913376e-04  1.5049963281643815e-04  1.7371883520162344e-04  1.7807546205651082e-04  1.9806704518737201e-04  1.9302295762595268e-04  2.0723163561702759e-04  2.3122308373001908e-04  2.1673710123707078e-04  2.6123468100013644e-04  2.3264426331704162e-04  2.9958790198037340e-04  2.7038892077612168e-04  3.3841627058683974e-04  3.0472633143015969e-04  3.7042723820775761e-04  3.9507559481367113e-04  4.2408891202645651e-04  4.3738227919798710e-04  4.5478463936863162e-04  4.6312550044185641e-04  4.3805507845336351e-04  4.5531204122393061e-04  4.2658763266266290e-04  4.3320259263012454e-04  4.0416801925296407e-04  4.0352011770782373e-04  3.7600528739951098e-04  3.7288435239682264e-04  4.1901408000641306e-04  3.4123567961144704e-04  1.8420357088859480e-04  1.9404769909925533e-04  2.3540223413124565e-04  2.0834461914865648e-04  2.4806291443077395e-04  2.2248408843643581e-04  2.5265521002243652e-04  1.9340615517854639e-04  2.8161886600537312e-04  2.7897948648730172e-04  3.1845798503588480e-04  3.0145212936227834e-04  1.6412517829958911e-04  2.6178610926738465e-04  4.6887948211613825e-04  2.0095192012696520e-04  3.5057177863508652e-04  2.7381036044668398e-04  3.4333230557657599e-04  4.5422704100366089e-04  4.6291637052946677e-04  3.9066159997591524e-04  3.7387449773234314e-04  4.0169691537511761e-04  4.2476048227412503e-04  1.8038351663830052e-04  1.7700605476120464e-04  1.6805723424135862e-04  1.8486390972336349e-04  1.5729875070012606e-04  1.5480808152915380e-04  3.4105342324603725e-04  3.5438574033248393e-04  3.1645346561520027e-04  2.8621109724532651e-04  3.0532382308160984e-04  2.3990216326794735e-04  4.3528847829668918e-04  4.5537070465912090e-04  3.9806314677590874e-04  4.0980712637446047e-04  3.6304477898273951e-04  2.8652551304222794e-04  2.5930170499954244e-04  1.4621214665967798e-04  1.5907162396954758e-04  2.5440692100869649e-04  2.2977576634893756e-04  2.1133787115693495e-04  3.1767599068260676e-04  2.2773552403879162e-04  2.3069614238285021e-04  2.0804540111035816e-04  2.5290440044208393e-04  2.6652063072801633e-04  2.8245541206220248e-04  1.9084408362571209e-04  1.8816671150407980e-04  4.7173121388725770e-04  4.7125808653365373e-04  1.6811553681719165e-04  1.4549275729665957e-04  1.7975016252804078e-04  1.3787912720775199e-04  1.4370931029891005e-04  1.3445686237495788e-04  1.5711104171586653e-04  3.1128436915317959e-04  3.5656494185717452e-04  2.7499605294200311e-04  2.9771018675164602e-04  4.0894532725843880e-04  3.9977570654721895e-04  4.5192075097042015e-04  4.4018160187227499e-04  4.3916691353620101e-04  1.2311207810969591e-04  1.3146535501826662e-04  1.3927014669463868e-04  4.4025905025898624e-04  2.0866136980783438e-04  2.2115581065646422e-04  3.1269404505669522e-04  3.6317867032752100e-04  3.4537027097369970e-04  1.4691871905411739e-04  1.6540066409707107e-04  1.5862185412058913e-04  2.3834437655150027e-04  3.0435951844727570e-04  3.5084477039424905e-04  1.8214608339088683e-04  4.0392488079332370e-04  4.2684873475988468e-04  3.9176968964079069e-04  4.5471632269960182e-04  4.6458021890436162e-04  4.4600328915499481e-04  4.2325136248723161e-04  3.2124553537357404e-04  3.1193689308857755e-04  1.6283540897893132e-04  3.8869579745457101e-04  3.4364416529212590e-04  1.7495532389290709e-04  2.1344599956548373e-04  3.8378163983088454e-04  2.7957573024579206e-04  3.3976996625701122e-04  3.3701521522477591e-04  1.9766587008880873e-04  2.3802023438971643e-04  1.2714419575800097e-04  2.0074363828285517e-04  4.0225353117260187e-04  2.7577495786566310e-04  2.9783027337688408e-04  1.4233327195838742e-04  1.8461057609052387e-04  2.1979058862203589e-04  2.5983044496203695e-04  4.6017706681713238e-04  1.2916190915692667e-04  1.6121100903101164e-04  3.7414260537439341e-04  3.7713260554557231e-04  2.4875389495099232e-04  3.6645560756498732e-04  1.6048936671919244e-04  1.4377595487643192e-04  3.1378380422608394e-04  2.3260326045860974e-04  2.6108943124475149e-04  1.0932700785537478e-04  1.1807527229618261e-04  4.6539011288936765e-04  3.2865250148963267e-04  2.6459596340466991e-04  3.8316734857105316e-04  3.1000199489265309e-04  1.4349012113021382e-04  3.0614630076168268e-04  1.6657385632162902e-04  2.1438744928920728e-04  4.2546840930057279e-04  2.6754462189083195e-04  4.4335571009030994e-04  4.5572578702487586e-04  1.4983319010507183e-04  3.3453195118951734e-04  2.5387883306236922e-04  2.4395643908860142e-04  2.8361357175949104e-04  4.6610037425678469e-04  3.0132284829212022e-04  1.9811840456394159e-04  2.2979654378083814e-04  2.3330375549233251e-04  3.2803598866227467e-04  1.6121146640815651e-04  1.9351979855779448e-04  2.0220133549085704e-04  4.6568550487723943e-04  4.7044285418776745e-04  4.5236068410713624e-04  3.5221653702342858e-04  3.3177275618433095e-04  4.7393602965430538e-04  4.2042900806940668e-04  3.5951153699556430e-04  4.5448961854408924e-04  1.6078513235003993e-04  2.7356412779462694e-04  4.3837599749193667e-04  1.7216997009729076e-04  2.6060871183995250e-04  4.5103388089692104e-04  2.0762707572469956e-04  3.8642455329502060e-04  1.7125640703591103e-04  3.1132288757821248e-04  1.7963722107068654e-04  2.8453336875944649e-04  4.6419059583413676e-04  1.7047892403924036e-04  3.5802252587245723e-04  3.3805471437288519e-04  1.0607742607383403e-04  1.8112410596487629e-04  1.0645498734906998e-04  1.0141491890738290e-04  1.0559225329674610e-04  1.7617773462430165e-04  3.3053207413790981e-04  2.7592953877292765e-04  1.9972240544554942e-04  9.8358046057559116e-05  3.0005658715938030e-04  3.4142073814945556e-04  3.5980472477112205e-04  2.2085537350172678e-04  1.4237016744666171e-04  1.2092752833522125e-04  2.2539885365180834e-04  2.6388486089965000e-04  1.0358429108150342e-05  1.1987613024880572e-04  1.9791047161422663e-05  1.3877621856476975e-05  3.8533293989390831e-04  2.3549673848459210e-05  3.8981503364010232e-04  4.6731654283473134e-05  4.1009825961957121e-05  5.1679131556190086e-05  1.7801461017576402e-04  1.4560789188283472e-04  3.8388873747798545e-05  9.8433373351753076e-05  3.9499264040824509e-04  2.4609416522927095e-05  1.0503225441891219e-04  1.7273517673496947e-05  4.8706213639200634e-05  2.4373754936259318e-04  7.3751350153503000e-05  7.6133309502242937e-05  3.4637198214065442e-05  7.8972707383153778e-05  2.6246296232740482e-05  3.7119086647942112e-05  1.8081805041783184e-05  3.8543823631333620e-05  3.3355212324746586e-05  3.0490388202507843e-05  1.3734697053341557e-05  7.2190949977057737e-06  2.6287528229437554e-05  2.8669571529491816e-05  1.6610331810567078e-05  3.0667134724715734e-05  3.2055589983940002e-05  8.1541000213054625e-06  1.1172567477783725e-04  1.1051785038916581e-04  1.0224024948686160e-04  9.8448651342196165e-05  1.0617796440964669e-04  9.0326181980156817e-05  9.1362691303258341e-05  1.0010453421240686e-04  8.2203259819150040e-05  9.0581680604568816e-05  1.0935449842711779e-04  9.7905690480837659e-05  1.1927228950608663e-04  1.0383466424624660e-04  1.2210635519526236e-04  1.0657431013638474e-04  1.2363022985175396e-04  1.0627272514979101e-04  1.2183502035661138e-04  1.0217734856170677e-04  1.1623939269279496e-04  8.7745532685507149e-05  1.3596842205484925e-04  1.2984256338779710e-04  1.0615655735661768e-04  1.1749121172316644e-04  1.4326133346227089e-04  1.2853868304596629e-04  9.1286138400850615e-05  1.5513458164904693e-04  1.3907238624653417e-04  8.1606687561357246e-05  8.7459821917646496e-05  6.8256525442791306e-05  1.7089848496447513e-04  1.4984857526402314e-04  1.8039000571002756e-04  1.5944604467505049e-04  1.2699465761356003e-04  1.3582213875256460e-04  1.7048444051211275e-04  1.4527651183012457e-04  1.8607514991711468e-04  1.5543538459516140e-04  1.9192934698713306e-04  1.6349168194247548e-04  2.0567323131763591e-04  1.7086088889321603e-04  2.1189035478301276e-04  1.7490162923455596e-04  2.0948675668833733e-04  1.7402489279151690e-04  2.0772769140080220e-04  1.6888131589645023e-04  1.9941353598467687e-04  1.6004505355607889e-04  1.8455183820043474e-04  2.2544636596009482e-04  2.0443688773434668e-04  2.4566002935973212e-04  2.1878787681538553e-04  2.6057676741731285e-04  2.2589503095772075e-04  2.6853267912981438e-04  1.6553326817957158e-04  2.2652164846220216e-04  2.7752946099338013e-04  1.3429619498546143e-04  1.8347358934452687e-04  2.4743218453453171e-04  1.0002926454264310e-04  2.6385292256919852e-04  2.3013863757662706e-04  1.1055290856282726e-04  5.9552177681901874e-05  1.3756808231164816e-04  1.2276185063430674e-04  1.8037906354960984e-04  2.2441188433247857e-04  2.6451595880232128e-04  3.1213157949780228e-04  3.0938110975617194e-04  2.4911916621017563e-04  2.8748457880429482e-04  4.8552397569899960e-05  2.1592459894775989e-04  2.9700975120452067e-04  5.6200893617982506e-05  2.2601182829102854e-04  2.6373111800240257e-04  3.1920263252367893e-04  3.0350502147089405e-04  2.3834412765248486e-04  2.6991054899326816e-04  2.0750055667388678e-04  2.3787506387938452e-04  2.9219530369109026e-04  2.5941301458523071e-04  3.0551158578566976e-04  2.7248619244076244e-04  2.2656138579989961e-04  2.3785926072411018e-04  1.9201671263643702e-04  2.0251782508330603e-04  2.4062590053596511e-04  2.0433232210927805e-04  2.3528940576204475e-04  1.9857549824485297e-04  1.6903714024385467e-04  1.6204436098100835e-04  1.8483835336222671e-04  1.4853717711200287e-04  1.6564989806542625e-04  1.2606121171485361e-04  2.0101497189187997e-04  1.7708262048835591e-04  1.4269365859420551e-04  1.5041314136326477e-04  1.1807354530698912e-04  1.2511279823723104e-04  1.5344357783062012e-04  1.2558171777484034e-04  2.7090087938218857e-04  2.5985468455927765e-04  1.5764964528052665e-04  2.0983489933774159e-04  3.1107211961137139e-04  1.5229562833371887e-04  1.2816581772686470e-04  9.8933660405211307e-05  9.8170604031864230e-05  1.2068554588945349e-04  9.5435683882512479e-05  1.1073076356253714e-04  9.0928435988326680e-05  1.0578629453725984e-04  8.7440262988213864e-05  7.1548498662087087e-05  6.9434650587777308e-05  8.6833818832052185e-05  6.8108591383287222e-05  7.9022680206406666e-05  6.5425171883166288e-05  7.5303658850832541e-05  6.3612003415872416e-05  7.2282229143687393e-05  6.1459826237611758e-05  6.9700471022264798e-05  5.8809092255141093e-05  6.5993159233232357e-05  5.5070459352998536e-05  6.1531427157476102e-05  5.0321219034045067e-05  5.5472809102459104e-05  4.4273586731848925e-05  6.7181547734718373e-05  6.0282289119529021e-05  5.2318949589704703e-05  8.2549359572680603e-05  4.8131694539616890e-05  5.1958901234714786e-05  6.4865384924124933e-05  3.9379277117517183e-05  3.3794236576011367e-05  5.5966897468506344e-05  6.9322652844552003e-05  5.9636841495358085e-05  3.7202057110895773e-05  3.9017392366537707e-05  8.8268819161427562e-05  7.5120597312097149e-05  6.3252723377559212e-05  7.7757136771404147e-05  6.7165247907870744e-05  8.2461942151834151e-05  5.1473506754505966e-05  7.2016373730814033e-05  2.8263065297124397e-05  5.3900639315927484e-05  1.1313460098479157e-04  9.1628183329912650e-05  1.0005308911176868e-04  2.9067131945624368e-04  1.3913405177910906e-04  1.3583345922725288e-04  7.7902283906676516e-05  2.6840881266531630e-05  7.2743342279203317e-05  3.6366649018413289e-05  8.1672735128821830e-05  6.4566634677959973e-05  7.3942530545379986e-05  1.8078624977946949e-04  1.0897092946405784e-04  8.0957841394065739e-05  9.3721565395048860e-05  1.7773028692542035e-04  2.7570424306366657e-04  9.3315522533665476e-05  3.3917881824547261e-04  1.2171755957789426e-04  1.1730163687466938e-04  6.2882444733634602e-05  3.0299211126997243e-04  1.7096387939213883e-04  1.3981267184928832e-04  3.3878667709910849e-04  8.1137578286343649e-05  8.5671382570195860e-05  5.0372751839192586e-05  3.4745166241762138e-04  3.6040787203212027e-04  6.9128584774274312e-05  9.9490686027628637e-05  3.4537627774832461e-04  3.4701124849229319e-04  3.3542892591689467e-04  6.0030162853938240e-05  1.2812266030864922e-04  1.7276926814948124e-04  3.7096674837548314e-04  3.0122228879493916e-04  4.4679826006461706e-05  4.0402775795608727e-05  3.4477770906209435e-04  3.2433962352417537e-04  3.1103050162083781e-04  3.3985839629688833e-04  3.5276955870121632e-04  1.0806247011168151e-04  1.2532310393626009e-04  1.3781473193996623e-04  1.4449189031434277e-04  1.5509477691802985e-04  8.6137732690183677e-05  9.1744720118836003e-05  2.9065993759510144e-05  3.9139133187791029e-05  2.8980135523335467e-05  3.6214986972400037e-04  1.9315120206889346e-04  2.0231848975654735e-04  4.5854374199495586e-05  3.1412110106986629e-04  2.9477032884135912e-04  1.8297984637351604e-05  3.1304520958833009e-05  1.4958352245118619e-05  1.3104978976637209e-04  1.3092990420778447e-04  5.8680220721965947e-05  8.9745361483906002e-05  1.1891087589776294e-04  2.3191606795761494e-04  2.3497677201465272e-04  3.8852614997071666e-04  2.5021964895404635e-04  2.8748035538157969e-04  2.8240150768300143e-04  2.7051407185709495e-04  2.6048753315087593e-04  3.0700186397434058e-04  2.7430951432542961e-04  2.5811899353707710e-04  6.8998021272515141e-05  1.0013413300358117e-04  2.2570619453928173e-04  2.1339337632711737e-04  2.0727288171825138e-04  2.1508045814992380e-04  1.9803514014523688e-04  6.8967357422444335e-05  2.8353201475925856e-04  2.0626773645429457e-04  1.9349617283352828e-04  1.8766542285643905e-04  1.7795061024471524e-04  1.7379722192578930e-04  1.8070658491363341e-04  1.6633547141706832e-04  1.7167112588475404e-04  1.5766804319659116e-04  1.6243076766210148e-04  2.4371072419936574e-04  3.7003546013693832e-04  2.5777237788012470e-05  2.8752755079572305e-05  1.2510282937921630e-04  1.1281144506211794e-04  1.081920