<?xml version="1.0"?>
<VTKFile type="UnstructuredGrid"  version="0.1"  >
<UnstructuredGrid>
<Piece  NumberOfPoints="1277" NumberOfCells="2456">
<Points>
<DataArray  type="Float64"  NumberOfComponents="3"  format="ascii">0 0 0  0 1 0  1 1 0  1 0 0  1.1 -0.1 0  -0.1 -0.1 0  1.1 1.1 0  -0.1 1.1 0  0.5068869806370357 0.5050360908914335 0  0.6386530515051232 0.7191959613194553 0  0 0.9499999999997918 0  0 0.8999999999995836 0  0 0.8499999999996529 0  0 0.7999999999999998 0  0 0.7500000000003466 0  0 0.7000000000006934 0  0 0.6500000000010401 0  0 0.6000000000013869 0  0 0.5500000000017335 0  0 0.5000000000020587 0  0 0.4500000000018723 0  0 0.4000000000016644 0  0 0.3500000000014564 0  0 0.3000000000012483 0  0 0.2500000000010403 0  0 0.2000000000008322 0  0 0.1500000000006241 0  0 0.100000000000416 0  0 0.05000000000020799 0  0.04999999999989965 0 0  0.09999999999981467 0 0  0.1499999999997036 0 0  0.1999999999995579 0 0  0.2499999999994121 0 0  0.2999999999992664 0 0  0.3499999999991206 0 0  0.3999999999989749 0 0  0.4499999999988292 0 0  0.4999999999986943 0 0  0.5499999999988151 0 0  0.5999999999989468 0 0  0.6499999999990784 0 0  0.69999999999921 0 0  0.7499999999993417 0 0  0.7999999999994734 0 0  0.8499999999996051 0 0  0.8999999999997368 0 0  0.9499999999998684 0 0  1 0.04999999999989965 0  1 0.09999999999981467 0  1 0.1499999999997036 0  1 0.1999999999995579 0  1 0.2499999999994121 0  1 0.2999999999992664 0  1 0.3499999999991206 0  1 0.3999999999989749 0  1 0.4499999999988292 0  1 0.4999999999986943 0  1 0.5499999999988151 0  1 0.5999999999989468 0  1 0.6499999999990784 0  1 0.69999999999921 0  1 0.7499999999993417 0  1 0.7999999999994734 0  1 0.8499999999996051 0  1 0.8999999999997368 0  1 0.9499999999998684 0  0.9499999999997918 1 0  0.8999999999995836 1 0  0.8499999999996529 1 0  0.7999999999999998 1 0  0.7500000000003466 1 0  0.7000000000006934 1 0  0.6500000000010401 1 0  0.6000000000013869 1 0  0.5500000000017335 1 0  0.5000000000020587 1 0  0.4500000000018723 1 0  0.4000000000016644 1 0  0.3500000000014564 1 0  0.3000000000012483 1 0  0.2500000000010403 1 0  0.2000000000008322 1 0  0.1500000000006241 1 0  0.100000000000416 1 0  0.05000000000020799 1 0  -0.1 1.05000000000004 0  -0.1 1.000000000000079 0  -0.1 0.9500000000001624 0  -0.1 0.9000000000003032 0  -0.1 0.850000000000444 0  -0.1 0.8000000000005848 0  -0.1 0.7500000000007256 0  -0.1 0.7000000000008665 0  -0.1 0.6500000000010508 0  -0.1 0.6000000000012352 0  -0.1 0.5500000000014196 0  -0.1 0.500000000001539 0  -0.1 0.4500000000014195 0  -0.1 0.4000000000013 0  -0.1 0.3500000000011588 0  -0.1 0.3000000000010178 0  -0.1 0.2500000000008986 0  -0.1 0.2000000000007579 0  -0.1 0.1500000000006174 0  -0.1 0.1000000000005272 0  -0.1 0.05000000000040083 0  -0.1 2.671196597248127e-13 0  -0.1 -0.0499999999998666 0  -0.0500000000000906 -0.1 0  -1.730560139634463e-13 -0.1 0  0.04999999999975802 -0.1 0  0.09999999999961506 -0.1 0  0.1499999999994613 -0.1 0  0.199999999999302 -0.1 0  0.2499999999991446 -0.1 0  0.2999999999990088 -0.1 0  0.3499999999988296 -0.1 0  0.3999999999986936 -0.1 0  0.4499999999985143 -0.1 0  0.4999999999984002 -0.1 0  0.5499999999985247 -0.1 0  0.5999999999986493 -0.1 0  0.6499999999987955 -0.1 0  0.6999999999989417 -0.1 0  0.7499999999990659 -0.1 0  0.7999999999992116 -0.1 0  0.8499999999993573 -0.1 0  0.8999999999994526 -0.1 0  0.949999999999584 -0.1 0  0.9999999999997226 -0.1 0  1.049999999999861 -0.1 0  1.1 -0.0500000000000906 0  1.1 -1.730560139634463e-13 0  1.1 0.04999999999975802 0  1.1 0.09999999999961506 0  1.1 0.1499999999994613 0  1.1 0.199999999999302 0  1.1 0.2499999999991446 0  1.1 0.2999999999990088 0  1.1 0.3499999999988296 0  1.1 0.3999999999986936 0  1.1 0.4499999999985143 0  1.1 0.4999999999984002 0  1.1 0.5499999999985247 0  1.1 0.5999999999986493 0  1.1 0.6499999999987955 0  1.1 0.6999999999989417 0  1.1 0.7499999999990659 0  1.1 0.7999999999992116 0  1.1 0.8499999999993573 0  1.1 0.8999999999994526 0  1.1 0.949999999999584 0  1.1 0.9999999999997226 0  1.1 1.049999999999861 0  1.05000000000004 1.1 0  1.000000000000079 1.1 0  0.9500000000001624 1.1 0  0.9000000000003032 1.1 0  0.850000000000444 1.1 0  0.8000000000005848 1.1 0  0.7500000000007256 1.1 0  0.7000000000008665 1.1 0  0.6500000000010508 1.1 0  0.6000000000012352 1.1 0  0.5500000000014196 1.1 0  0.500000000001539 1.1 0  0.4500000000014195 1.1 0  0.4000000000013 1.1 0  0.3500000000011588 1.1 0  0.3000000000010178 1.1 0  0.2500000000008986 1.1 0  0.2000000000007579 1.1 0  0.1500000000006174 1.1 0  0.1000000000005272 1.1 0  0.05000000000040083 1.1 0  2.671196597248127e-13 1.1 0  -0.0499999999998666 1.1 0  0.6645564325532757 0.7128361531513246 0  0.6887991014285322 0.7044468013305896 0  0.7110448915988908 0.6933185488611102 0  0.7305006569585804 0.6791168227282679 0  0.7476591271775128 0.6625703385543681 0  0.7622053395555402 0.6433198531172036 0  0.7744350319398199 0.6220341569512844 0  0.7839954706766739 0.5989352402144608 0  0.7912758782309205 0.5745815382640324 0  0.7964902746957978 0.5493520764350839 0  0.7995098138286028 0.5239145696226403 0  0.8005833126279642 0.4982869677254438 0  0.7997517786569457 0.4727694830522332 0  0.7967106966238052 0.4475130483813828 0  0.791413670112901 0.4232236180014886 0  0.7844829311213649 0.3998960318429335 0  0.7751000927418114 0.3780754624979637 0  0.7634152614518204 0.3581256392400393 0  0.7496157950259631 0.3402097040485205 0  0.7335408263906931 0.3246313414647223 0  0.7152674432380031 0.3103321022914168 0  0.6934866118400549 0.2989888029629937 0  0.6688789119233854 0.2899197923035737 0  0.6421822589940521 0.2837489628245162 0  0.6138166830457874 0.2798516465555463 0  0.584609594456853 0.2775763334390127 0  0.5539389601497918 0.2763106328661769 0  0.5231222956405092 0.2759292460337727 0  0.4925035142212959 0.2758412320776069 0  0.4617745515132015 0.2758082209564209 0  0.4313286882154049 0.2758310828633664 0  0.4011903646302598 0.2768514344099546 0  0.3733851878685747 0.2793451078179219 0  0.3478851519075918 0.28395352517296 0  0.3241039536646462 0.2903116906177675 0  0.3036687431229935 0.2985774353582152 0  0.285424775169386 0.3086093046817914 0  0.2690995310229868 0.3203895844435363 0  0.2546101579603371 0.3340986291393164 0  0.2418293917791423 0.3499412220407656 0  0.2307392974559062 0.3677628571759577 0  0.2206964416929245 0.3885715476361717 0  0.2119713556682836 0.4121725002598997 0  0.2054045277943094 0.4383921455390793 0  0.2013528622772218 0.4661498064683469 0  0.1994031007993183 0.4940402870853013 0  0.1994572391515239 0.5228018067010254 0  0.2028178122249712 0.5508145297666425 0  0.2084849584342705 0.5782427275366157 0  0.2172508255595509 0.6043766114474499 0  0.2285893687416076 0.6268978205780308 0  0.2412432277132695 0.6464087163950079 0  0.2548631955123167 0.6627424171774602 0  0.2695513896452942 0.676739709455654 0  0.2857759617344715 0.6888526076791603 0  0.3040518951379032 0.699487321494065 0  0.3247520227116256 0.7083825540239189 0  0.3478048602836842 0.7151641052013682 0  0.3730900492120918 0.7199347297108838 0  0.4010268201782844 0.7223038104801176 0  0.4300017557294328 0.72410361106439 0  0.4600497106244193 0.7248647529399702 0  0.4905020958954948 0.7251671792767846 0  0.5211555852440538 0.7254996390233946 0  0.5517418523694863 0.7259133963892475 0  0.5824063693784624 0.7260208063138741 0  0.6114769328578371 0.723583128698893 0  0.2632643576550804 0.6329666367097702 0  0.2448625779479473 0.3980387598641816 0  0.7478098510716668 0.624150173357071 0  0.7755607599330818 0.534454457926639 0  0.6425493663378899 0.6981557609039025 0  0.6209824562108448 0.2987466179105209 0  0.7228396059505944 0.3462198565848391 0  0.5129962204568792 0.2926346703230697 0  0.2827130705183192 0.3484464955401612 0  0.330689557524857 0.3140005309137031 0  0.4309949517140726 0.3000515988594283 0  0.3104814251477486 0.6733794472658505 0  0.3720500201209101 0.6966438703584135 0  0.451653252260831 0.7040412178317808 0  0.5373302701982704 0.7073967656440514 0  0.7645939859152168 0.4191262857948443 0  0.2216239090957293 0.5547001037223832 0  0.221226717731294 0.4646027461142461 0  0.7069788299577067 0.6701106414811498 0  0.3754939440607734 0.3023088474538183 0  0.7738409022779267 0.4653542575630892 0  0.5929825162400748 0.7059647620292818 0  0.7655800827616658 0.5788436213720809 0  0.7469693867432157 0.3795577728691599 0  0.6886751536317514 0.3192403891700228 0  0.5722207091642521 0.2919230975497056 0  0.2381716653600966 0.5989794765259046 0  0.214242993164591 0.5075089491142442 0  0.4807389073032802 0.7055133032363463 0  0.4736591218723043 0.6840085101719362 0  0.444300350837348 0.6821233161371685 0  0.4664843266470031 0.6613957561564091 0  0.4351739985368143 0.6590078744401109 0  0.4534276291759424 0.6406651296800977 0  0.4804455261281935 0.6357583304363652 0  0.4268144741696527 0.6340725572443876 0  0.4508468347031079 0.6078186819616905 0  0.4088695336957245 0.6052617654559704 0  0.5009066388220974 0.6009642353918171 0  0.5422992076273407 0.6296807288369201 0  0.5492545815018502 0.5828280771692986 0  0.5849155552494392 0.6166884973209366 0  0.5962081007089572 0.5698283152359063 0  0.630118844178571 0.6031501427848901 0  0.642635700777061 0.555931663304893 0  0.6777646458200275 0.5845286407680388 0  0.6905788954714774 0.5478353275419512 0  0.6560381976114072 0.5203984272575199 0  0.6971960382116775 0.5171330641185206 0  0.6756301740479798 0.4868149818029098 0  0.6270402215202747 0.4950359852079376 0  0.6412203580082539 0.4592952771214268 0  0.6889113974905006 0.4468226008601825 0  0.6599136452338676 0.4202490039769589 0  0.6109550193490629 0.4308494215433486 0  0.6262244420876024 0.3970394110240052 0  0.5805825301350083 0.4030188923092802 0  0.5996631805325517 0.3685318633549481 0  0.5485516184165065 0.3695967432521219 0  0.5348721079220211 0.4061253319784225 0  0.5006596258224085 0.3701212930292183 0  0.4872676085737299 0.4095861790088892 0  0.4518280883703403 0.3716720196960371 0  0.4397539878919936 0.4112909485870743 0  0.66320
[...]
<PointData  Scalars="u"> 
<DataArray  type="Float64"  Name="u"  format="ascii">-3.4251393056509846e-18  -1.6385844152563445e-18  -2.8508991297171857e-17  4.1102273043902983e-20  1.8021555936725187e-20  2.7935454346342007e-19  -6.6811760187070852e-20  1.9661537289926594e-19  1.3162016857195011e-01  -6.4830362358865912e-02  -1.1072578921829212e-17  -3.0005818822218103e-17  2.9467643698384813e-17  -1.9018143502827802e-18  -3.4724274119758188e-17  -3.2406959657143817e-17  -1.3603533052920305e-17  8.6147534666462958e-17  -1.1691757499029123e-17  -3.7292641884987820e-17  8.4656481054064096e-18  -2.6250126815019282e-17  -4.7519691779569444e-17  4.4591543605763483e-17  1.2313660389141648e-17  -2.3964890196728671e-17  4.0225516991709073e-19  -3.6481464889677061e-17  3.1041159441662761e-17  -2.2159029118060594e-17  -2.0989184213949799e-17  -1.6823943939250369e-17  -5.1371473140386260e-17  -7.9263117681106556e-18  -2.1801740739208538e-17  5.6669307480150651e-17  -3.6206571583760179e-17  -6.4555139909098025e-17  6.4829484354441069e-17  -9.3422827528070389e-17  -1.3218291708123023e-16  -9.9376036137681046e-17  -6.0491451691192711e-18  4.1054292456701363e-18  -6.5022934942090691e-17  -2.3171691132672936e-17  -1.5173881583057631e-17  -2.3696606531859381e-18  1.9447299015109273e-17  3.5868352346032617e-17  3.1531285702132795e-18  -1.7133569337878900e-16  1.6856649135596772e-16  1.8667383403581427e-17  -1.6768476497932339e-16  -1.8432163594267246e-17  1.6078465130687569e-16  -1.3124437174789796e-16  -4.1386876677521233e-16  -5.9365537592046626e-17  1.4371754221722630e-16  1.2058244395450843e-16  -2.7129819956729631e-17  1.6514057651376366e-16  2.1352107147233123e-17  1.9740719574141046e-17  -8.1734311779158490e-17  -6.3786389381512253e-18  -2.9595797293876520e-17  -5.9127900789190188e-17  1.4410822025031608e-16  7.5059093717144798e-19  -2.6820965034725820e-17  1.7865598582255337e-17  -2.2724685567360711e-16  1.0074211453303761e-16  2.3327965265862709e-16  -9.1306566216191062e-17  6.6868057775172982e-17  3.4480728576277764e-16  3.0088282602602001e-16  -1.7810657943100976e-16  8.0062482506363492e-17  -9.0575863892197052e-18  5.2288025220729795e-17  8.7671433308228837e-17  -3.3340541821412655e-20  2.3062936715896504e-19  -3.1629192491825912e-18  -3.1673847280768147e-18  2.8457210825099915e-18  3.8028233493392839e-19  -5.3147774537468339e-18  -7.2376061420738591e-18  2.3543182319775368e-18  9.9577900318624153e-18  5.6344996959621206e-19  -5.1818793775434586e-18  -1.2637593884376833e-18  -2.7754440727473806e-18  -3.5272127007013167e-18  1.4684531333591111e-18  2.6084681607150812e-18  -1.1945495288611112e-18  -2.5979668297890289e-18  -1.7377488987142287e-18  5.1746047445529873e-19  1.5560456496325043e-18  -8.2301966995799749e-19  1.7530500395656987e-19  -7.1377570108212581e-19  -2.4765056545537633e-18  -4.0149061329369272e-18  -4.1560233667165468e-18  -5.2655756122568909e-18  -4.0029744846754197e-18  1.5800610240772342e-18  4.7531461707840646e-18  -5.4855918183820086e-18  -4.5305199435096160e-18  8.8524849486024748e-20  -1.0759046934235781e-17  -1.9919279824333094e-17  -1.3824598679730887e-17  7.3854881533477139e-19  1.1518455055999790e-18  -7.5305238778029335e-18  -4.8553041332504023e-18  -1.3284003149214505e-18  -3.7616129048348742e-19  2.9661861887569449e-20  8.5764323201387721e-21  -1.0351211419823228e-19  3.5226945972224544e-19  -6.2229132278164360e-19  -1.3127548484102662e-18  -1.7683571128573716e-18  -1.9221566078942668e-18  2.6653745288664757e-18  -7.6644012440340399e-19  -6.4326923480745982e-18  -4.3412148681754001e-18  -2.0615282316092216e-18  -2.1535524880681274e-18  -6.0782639700066695e-18  -5.2034723270713393e-18  4.1607564758052269e-18  9.0289712994579646e-19  -4.0594496437026348e-18  9.6449548032512554e-19  3.0768275475618404e-18  2.2010225771901300e-18  -9.7391717580861922e-19  -7.5825504620851250e-19  2.0891145363928292e-19  -3.9589089790042701e-20  4.4343388735788386e-19  -1.0806612774516226e-18  -1.6824700835498063e-18  -5.4833436952729332e-18  -3.8158668258309843e-18  -1.4352693997793453e-18  -6.0412137900735378e-19  2.3284216043492773e-18  -1.0324269512593464e-18  -9.7864845732829164e-19  2.0158324812567292e-18  1.2934772130246514e-19  -4.3733823957649561e-18  1.3172298620890175e-18  5.6761127978505111e-18  -3.2979158624429820e-18  -1.0956770471019900e-18  -2.0691984580246227e-18  -2.2298260593331109e-18  1.3239858599638842e-18  1.1187805609098915e-18  -5.4108132831410922e-19  -6.8773052869821230e-02  -7.1760079561231413e-02  -7.3444740930355620e-02  -7.2752639402739752e-02  -7.0471496548733345e-02  -6.6709891656371076e-02  -6.2230317267514990e-02  -5.7351238011102187e-02  -5.2867859143867227e-02  -4.9493448246750268e-02  -4.7429444935050510e-02  -4.6890425743414697e-02  -4.7968830731881025e-02  -5.0343701706383533e-02  -5.3784379775967631e-02  -5.8344223346258009e-02  -6.3019447354551783e-02  -6.7211792561436653e-02  -7.0706995675258524e-02  -7.2888663696021608e-02  -7.3951890679889179e-02  -7.2689449388311456e-02  -6.9764571792870420e-02  -6.5349388942427797e-02  -6.0225542398602949e-02  -5.5370878492736364e-02  -5.1446584896233737e-02  -4.8874665293047403e-02  -4.8283528117400179e-02  -4.9701970131620650e-02  -5.3205301941849512e-02  -5.8088298832394032e-02  -6.3064707546711854e-02  -6.7286016857184938e-02  -7.1059058999804137e-02  -7.2911446497585825e-02  -7.3863679989428305e-02  -7.3314648300597404e-02  -7.1519958910383374e-02  -6.8392806614366156e-02  -6.4391670215159055e-02  -5.9816337628192856e-02  -5.5172079386573800e-02  -5.1014153824072407e-02  -4.7975742880261164e-02  -4.6701476451645511e-02  -4.7913508455802348e-02  -5.0304882724608119e-02  -5.4120532877907815e-02  -5.9229952905193388e-02  -6.3631636617243914e-02  -6.7494496694955136e-02  -7.0314599797741351e-02  -7.2125872610355121e-02  -7.2843986112892681e-02  -7.2458161077769201e-02  -7.0512869558048474e-02  -6.7231134547340587e-02  -6.2829951464551309e-02  -5.7353138941531684e-02  -5.3015901946853759e-02  -4.9659674289702749e-02  -4.8028337220813580e-02  -4.8489177675201153e-02  -5.1381954939966015e-02  -5.6218860344602703e-02  -6.0735590215546781e-02  -2.3593183303462460e-02  -1.7651278848707506e-02  -2.4877248347986405e-02  -1.0543935228098272e-02  -2.4033123239328956e-02  -2.1062803979881875e-02  -2.9302871254216590e-02  -6.8845788109027327e-03  -2.3064824793378264e-02  -2.4947612578608367e-02  -4.7893870358163082e-03  -2.5152002506112870e-02  -1.8067983013418065e-02  -5.2154994387323423e-03  -6.9371284357818142e-03  -1.5674755895004888e-02  -1.7242502356979661e-02  -1.3113474810046247e-02  -3.1264628482129693e-02  -1.7460861186837092e-02  -9.3276919220066767e-03  -1.5380097188371205e-02  -1.5265221960495583e-02  -2.2801124766907287e-02  -3.1446457646623585e-02  -1.4870916352773758e-02  -2.1722068755536821e-02  -1.5812108608296283e-02  -3.8983101065335531e-03  1.9040451405069707e-02  1.7258409202940871e-02  4.2610988385332990e-02  3.9980095191902085e-02  6.2250765902979052e-02  7.0447052028190973e-02  6.3193637469451475e-02  8.9193563765199546e-02  8.0448685918557666e-02  9.8328591935792617e-02  7.4103550487824882e-02  1.0498659564348020e-01  7.5201239258355854e-02  9.9187892022633131e-02  6.7654783933299378e-02  8.4323358426543066e-02  5.2287190633420966e-02  5.8022335928037190e-02  8.5101226480243347e-02  5.9119431873188626e-02  7.4112616173870202e-02  1.0140497460628342e-01  8.9256230259773389e-02  5.7251227569382265e-02  6.4254869797348999e-02  9.2896488267061761e-02  6.8060897803872131e-02  8.8389169496514694e-02  5.7285163608939649e-02  7.1282661648203252e-02  9.9543479368466165e-02  7.5913649592482327e-02  1.0372330435338120e-01  7.3627783161491461e-02  9.8881049223626200e-02  3.8715019390872393e-02  6.4841336712555625e-02  8.2419545824198928e-02  4.1889214302025746e-02  5.6944209439102014e-02  6.4712396786978141e-02  9.6726943551354819e-02  8.0858193587173804e-02  1.0084835034526733e-01  8.1761368815823382e-02  6.2672655787821274e-02  6.1909313127979690e-02  7.2094157220674401e-02  5.0518898591088449e-02  5.3721679006386164e-02  3.9728201331060184e-02  1.1332981110736340e-01  7.3517283853141588e-02  4.9322452544128544e-02  1.1607004338290267e-01  3.8249577301366688e-02  2.7570700228649016e-02  1.8484299050946600e-02  2.1305459403902226e-02  4.8153528830883675e-02  3.7038163129407449e-02  5.4103220658360443e-02  4.6821593721783815e-02  1.5776087193797240e-02  6.6316743010352550e-02  3.1611847055167563e-02  3.6878890458125889e-02  2.8954961187170485e-02  2.8565289734990885e-02  1.2315054722988132e-02  1.3021866006557756e-02  3.2412529139676696e-02  1.5402618736266938e-02  4.6728927978973343e-02  2.2752976931371762e-02  2.7172246259523459e-02  1.8649196237544522e-02  2.7585940697248634e-02  8.7205751670679978e-03  1.1289597783165646e-01  4.2822293921468274e-02  1.4033741094948491e-02  1.5106572112011300e-02  8.5104260911746093e-03  2.7262381738314061e-02  1.7424803862074921e-02  2.5719393011957536e-02  4.9467998678306299e-02  2.8276494759423874e-02  2.0895503398718290e-02  6.6349801821343809e-03  8.5870019238402963e-03  1.4292059823823351e-02  2.2909985317032335e-02  -1.1195021397804114e-02  5.4126709550443373e-02  1.5919904670034398e-02  3.5530783084152681e-02  4.0373070288199945e-03  1.8267142978744507e-03  4.5003152872380263e-02  2.5985388953069653e-02  1.4687737433768840e-02  7.3634068862782542e-03  7.5659920587594180e-03  4.7142280737783836e-02  2.4965390167569330e-02  1.2068735667240096e-01  2.7415730114280692e-02  3.3715985637607367e-02  1.1548529620199524e-02  3.5991365170315241e-03  3.5371169929541584e-02  1.1167183686940776e-01  1.3887315822534833e-03  4.0572889057034080e-02  1.4294840700640533e-02  4.3161818491742374e-02  1.2205237456455538e-01  -9.7685646781455393e-04  -1.7618003699295420e-02  1.1067316003367512e-01  9.2446038379376969e-02  8.9951455291378671e-02  -1.4041587230041263e-02  -8.7087014634413592e-03  -5.8109218926641977e-04  -2.0840175029098313e-02  -7.3814963551478196e-03  -2.5787458596269276e-02  -1.9342319019556759e-02  -9.4472255455696520e-03  -7.0090025836339592e-03  1.5592019862056777e-02  1.0717261077949242e-04  -2.1573629506268444e-02  -2.5090445680505200e-03  -2.9659867877187201e-02  -1.4228672270789703e-02  -6.2032331176682136e-03  8.4097097606096356e-03  3.2223559999131554e-02  -2.6699599589134464e-02  8.4768905596938355e-03  -2.1087528107260750e-02  2.4124647096141825e-03  -9.9646469901456484e-03  1.0683344304632792e-02  -1.1388152412914592e-02  -9.9824069951562171e-03  -1.3336319380435368e-02  -1.3817240620857244e-02  -2.9847052278021747e-02  -1.7682780893288123e-02  -2.3140521588013618e-02  9.9963146398051820e-03  -5.4206776317581870e-03  -1.1671986199034347e-02  -2.7008114270686129e-02  -1.6427324077884217e-02  7.7398929566752078e-03  -1.3475107237242899e-02  -4.3601211768451598e-03  -9.7441838756232579e-03  1.0596788977761851e-01  -9.2549795634981821e-03  -1.9503698808718210e-02  -6.2558012849092178e-03  4.2173408213900872e-02  1.1067975115669978e-02  -1.4687573881654280e-03  1.1091931519047499e-01  1.2264747268215066e-01  1.2759889349340564e-01  -3.0623129993379555e-02  4.1943673473654949e-03  -3.2902711213921021e-02  5.8414819704970039e-03  -3.0961032412563518e-02  -2.0291943287695510e-02  1.2546845491115860e-01  4.3625154831585713e-03  4.5682313216159351e-03  -1.8059682589481471e-02  1.2243053136739619e-01  5.6962015992238092e-03  1.0024178948184083e-02  -7.0069775836488100e-03  -4.7566032159901330e-04  6.8752659085791513e-03  3.8544236862583764e-02  -3.2559973136878681e-02  8.5943863783564407e-03  1.1631416919899178e-01  3.7881281561004454e-02  -2.6927818286409319e-02  -1.8034370791892611e-02  3.1414380115064006e-02  -1.1896823511133178e-02  4.6967222152692065e-03  6.9055686872428329e-02  6.8531593945998044e-03  -1.4839045446761052e-02  -1.5405583148594398e-03  2.0541569560023742e-03  1.0820458856710918e-01  1.6609264047053870e-02  -2.5980687924190279e-02  -7.1235162556899205e-03  4.4655057467880545e-02  2.9295884909798682e-02  6.6142343819377586e-02  9.8083652824840703e-03  -6.1998376535771288e-03  1.5366186807769583e-03  3.9081848708460848e-03  1.9177013573182414e-02  -4.7972692681724190e-03  2.3630885921804862e-02  2.9264745194981519e-02  4.6514664891312771e-02  5.2767321218479726e-02  2.8460852773121159e-02  -3.1302441978693439e-02  -6.9768137948813319e-03  4.8485173273705795e-03  2.9163751697702446e-02  1.1091441167785708e-02  -6.1684800715408753e-03  4.5661307358916166e-02  2.8149204143595875e-02  5.0582663453531920e-02  3.9099558250842437e-02  1.0071082375382146e-02  2.9142326997042212e-02  -2.2204675751753770e-02  1.9566215313751790e-02  9.8233815417701972e-02  2.3474747908000911e-02  2.8818126663186415e-02  4.4946333915236766e-02  -1.8211414402112467e-02  4.4938128133894743e-02  1.2478409296183733e-01  4.0701955047052152e-02  5.2593943372821195e-03  5.4893959463874355e-02  5.1116062754402121e-02  3.7751529910808330e-02  -5.9912865541748321e-03  3.3359279602131087e-02  -1.4127419508322343e-03  3.4344965039661633e-02  -9.9162265505308808e-02  -9.8058881005138487e-02  -9.9388619836475373e-02  -9.9064028496473708e-02  -9.3397459414309686e-02  -9.4523999470295897e-02  -9.5141305821983532e-02  -9.6550461603900017e-02  -9.0305544542764293e-02  -8.2095326546649236e-02  -8.9462306628932869e-02  -8.9508500807801109e-02  -8.3392745339924926e-02  -9.8025979371315394e-02  -7.8877092718907540e-02  -4.9778751513865814e-02  -3.9603436319290586e-02  -3.8978235303870415e-02  -8.2986706983097167e-02  -4.5881423454246603e-02  -4.2715029099359939e-02  -8.9995944166510258e-02  -8.0913590858960410e-02  -7.4771327353255923e-02  -4.9192026391848255e-02  -7.0452036704939811e-02  -4.5253330920212539e-02  -7.7106904337891288e-02  -5.9595322801307818e-02  -8.8782061177640023e-02  -8.0702167335731101e-02  -7.5836345891828610e-02  -5.3477882254913144e-02  -5.9634240804231263e-02  -6.9543220653591031e-02  -5.7520430336756245e-02  -6.0879988535847855e-02  -2.8906285655022259e-02  -4.0335122551245661e-02  -3.6070606794696113e-02  -7.6824130771389401e-02  -5.8071804371342538e-02  -6.7194199423429690e-02  -7.0669400296893281e-02  -7.2969821329182727e-02  -2.2154517369170321e-02  -2.1848295994513295e-02  -7.1521798783882498e-02  -7.8718568564706951e-02  -5.6240960985056682e-02  -4.2928824503438871e-02  -4.0351473075712865e-02  -4.8906395674689560e-02  -3.9729386156021958e-02  -4.4642323425065696e-02  -4.8791847010007515e-02  -4.0088445262379896e-02  -3.5420158021961745e-02  -2.9458766455330757e-02  -2.7997434776861830e-02  -7.1390910968912855e-02  -7.6043646503985721e-02  -7.7065414076838631e-02  -7.9872274756433104e-02  -8.0610115063744839e-02  -8.0064011226696916e-02  -7.7514677351611536e-02  -7.9615539907321287e-02  -8.0305751290698515e-02  -8.2791886217767771e-02  -7.4917616813374818e-02  -9.5439646534153114e-02  -1.0749453364908124e-01  -1.0999157107481712e-01  -1.2068990580430491e-01  -1.2315398438376775e-01  -1.1802487560298651e-01  -1.3217895294804752e-01  -1.3343652095605563e-01  -1.3869752382983527e-01  -1.3965425037474063e-01  -1.3489275595696185e-01  -1.3746992681627362e-01  -1.3226705785027409e-01  -1.3702467848675415e-01  -1.3068431749598075e-01  -1.2483683060046710e-01  -1.1741722530055596e-01  -1.1772119083915701e-01  -1.1147332338151557e-01  -1.1585366135957426e-01  -1.0381730862141568e-01  -1.0582247668171343e-01  -9.6023722425045352e-02  -1.3599297977545810e-01  -1.3569623937731418e-01  -9.6317497593092452e-02  -8.9843627731887296e-02  -9.6787191168283424e-02  -1.3216562614047370e-01  -8.1004347044593250e-02  -1.2635192237900505e-01  -1.1078710859079514e-01  -7.5710199194743408e-02  -8.3316081890841581e-02  -7.2905158749746249e-02  -7.9967445413066676e-02  -7.2597492539983766e-02  -7.9623541871763237e-02  -7.4741736716606666e-02  -8.1879322684796613e-02  -7.8031115588199501e-02  -8.6477371019549470e-02  -8.3599806031025931e-02  -9.4049859338294420e-02  -9.0546509984213916e-02  -1.0243200027147215e-01  -9.7894205824869657e-02  -1.1195639254631182e-01  -1.0520115147588267e-01  -1.2059677515527538e-01  -1.1073165085066784e-01  -1.2637051611279249e-01  -1.2936008238289803e-01  -1.3533335819010800e-01  -1.2810426757354801e-01  -1.3531411855904862e-01  -1.3881557582213716e-01  -1.3702249332399621e-01  -1.3854648481748974e-01  -1.2335828509427144e-01  -1.3464237362053369e-01  -1.3586256893733445e-01  -1.2607014174743991e-01  -1.1015968289924252e-01  -1.0346433392198236e-01  -1.2869736910849591e-01  -1.3133841801161589e-01  -1.3195148270705867e-01  -1.2861147953866384e-01  -1.2441961594896880e-01  -1.2670458625122355e-01  -1.2306420772190010e-01  -1.2115512038250520e-01  -1.2124342170384891e-01  -1.1424880336193062e-01  -1.1424429731996993e-01  -1.1895810052496210e-01  -1.1723928389227979e-01  -1.1583034232602143e-01  -1.1868848189465762e-01  -1.1197553801429985e-01  -1.1768605476369740e-01  -1.1870170544990602e-01  -1.2214531694733596e-01  -1.1657371158254870e-01  -1.2447424961085306e-01  -1.2276598633679808e-01  -1.2903431995954215e-01  -1.2451416054366227e-01  -1.3219288738601231e-01  -1.3092033180301416e-01  -1.3651277027702305e-01  -1.3242199412366598e-01  -1.3834685927044993e-01  -1.3703043870376355e-01  -1.3969217373890547e-01  -1.3576008046073931e-01  -1.3638538421393620e-01  -1.3621337950319004e-01  -1.2762045946901260e-01  -1.3134062387349665e-01  -1.2895934847936205e-01  -1.2160113226104487e-01  -1.1869913490459887e-01  -1.2737133865082959e-01  -1.1444453683017336e-01  -1.2149956855125967e-01  -1.0905762256851560e-01  -1.0762829663922477e-01  -1.0813013596796026e-01  -1.0780458807855360e-01  -1.2211241071963984e-01  -1.1208273087608954e-01  -1.0136459116304460e-01  -9.6650706252400714e-02  -5.4240290118345719e-02  -9.7722249720089541e-02  -1.2770610438688035e-01  -1.1251816386794854e-01  -1.1452344117235498e-01  -1.0965900681963514e-01  -1.0434214893138673e-01  -1.1559200243631017e-01  -8.8405336169895724e-02  -9.2505241915645686e-02  -8.7278808354223941e-02  -9.1596400308493281e-02  -8.1028811119461752e-02  -1.0742105882175494e-01  -1.0492299385958447e-01  -1.1384056023807501e-01  -8.3770481554944695e-02  -6.7652992969266759e-02  -1.0175498101569008e-01  -1.0051576475391243e-01  -1.1336609931013877e-01  -1.3228858315618616e-01  -1.2752895356651592e-01  -1.2796116026538207e-01  -1.2191207238246884e-01  -1.2434926492189660e-01  -1.1843703528978015e-01  -1.1877089068049550e-01  -1.2076729695312233e-01  -1.1842383705281467e-01  -1.1635399831519255e-01  -1.1903283902301021e-01  -1.1359143358700760e-01  -1.1628844017586568e-01  -1.1799304200024427e-01  -1.2040554052540822e-01  -1.1253857713458516e-01  -1.1925497470036966e-01  -1.2148854178579094e-01  -1.2540739416620461e-01  -1.1861199064790594e-01  -1.2708439884572406e-01  -1.2763744537595761e-01  -1.3301633969172963e-01  -1.2742058936823461e-01  -1.3491277376087465e-01  -1.3535439224494922e-01  -1.3887541881370857e-01  -1.3374671204039315e-01  -1.3759681692491418e-01  -1.3827683969503052e-01  -1.3583915025579676e-01  -1.3353775487859812e-01  -1.2922123060133944e-01  -1.3001951245371962e-01  -1.2551186828076935e-01  -1.1848786153927925e-01  -1.1495570329931001e-01  -1.2361397045087216e-01  -1.1511742285530195e-01  -1.1605871247895221e-01  -1.1506500934332800e-01  -1.0867701637349048e-01  -1.0489365379405309e-01  -1.0354892443144023e-01  -1.0573457652514787e-01  -9.8170106575029725e-02  -9.5114232738217980e-02  -9.3809475386555846e-02  -8.8907249837527999e-02  -1.0536161832397946e-01  -1.0279935637706178e-01  -1.1331878875615950e-01  -9.9721469105312877e-02  -9.0364369769158348e-02  -8.8070251985443437e-02  -1.1864184119120305e-01  -9.0335464744386126e-02  -9.7175261050727199e-02  -8.3750229949611385e-02  -1.0283728771906267e-01  -9.8747340708559284e-02  -8.9909279826710028e-02  -1.0632172117402862e-01  -8.3557538097407791e-02  -7.8835264554954335e-02  -8.2330186865015462e-02  -7.9781317463818072e-02  -7.7554349789644692e-02  -1.0737940940453028e-01  -8.8854279258367599e-02  -9.8199754281081353e-02  -1.0379888621003727e-01  -1.0829447799404508e-01  -9.95672