<?xml version="1.0"?>
<VTKFile type="UnstructuredGrid"  version="0.1"  >
<UnstructuredGrid>
<Piece  NumberOfPoints="1277" NumberOfCells="2456">
<Points>
<DataArray  type="Float64"  NumberOfComponents="3"  format="ascii">0 0 0  0 1 0  1 1 0  1 0 0  1.1 -0.1 0  -0.1 -0.1 0  1.1 1.1 0  -0.1 1.1 0  0.5070471980864276 0.5039158139924517 0  0.6286085404699617 0.7143946683261042 0  0 0.9499999999997918 0  0 0.8999999999995836 0  0 0.8499999999996529 0  0 0.7999999999999998 0  0 0.7500000000003466 0  0 0.7000000000006934 0  0 0.6500000000010401 0  0 0.6000000000013869 0  0 0.5500000000017335 0  0 0.5000000000020587 0  0 0.4500000000018723 0  0 0.4000000000016644 0  0 0.3500000000014564 0  0 0.3000000000012483 0  0 0.2500000000010403 0  0 0.2000000000008322 0  0 0.1500000000006241 0  0 0.100000000000416 0  0 0.05000000000020799 0  0.04999999999989965 0 0  0.09999999999981467 0 0  0.1499999999997036 0 0  0.1999999999995579 0 0  0.2499999999994121 0 0  0.2999999999992664 0 0  0.3499999999991206 0 0  0.3999999999989749 0 0  0.4499999999988292 0 0  0.4999999999986943 0 0  0.5499999999988151 0 0  0.5999999999989468 0 0  0.6499999999990784 0 0  0.69999999999921 0 0  0.7499999999993417 0 0  0.7999999999994734 0 0  0.8499999999996051 0 0  0.8999999999997368 0 0  0.9499999999998684 0 0  1 0.04999999999989965 0  1 0.09999999999981467 0  1 0.1499999999997036 0  1 0.1999999999995579 0  1 0.2499999999994121 0  1 0.2999999999992664 0  1 0.3499999999991206 0  1 0.3999999999989749 0  1 0.4499999999988292 0  1 0.4999999999986943 0  1 0.5499999999988151 0  1 0.5999999999989468 0  1 0.6499999999990784 0  1 0.69999999999921 0  1 0.7499999999993417 0  1 0.7999999999994734 0  1 0.8499999999996051 0  1 0.8999999999997368 0  1 0.9499999999998684 0  0.9499999999997918 1 0  0.8999999999995836 1 0  0.8499999999996529 1 0  0.7999999999999998 1 0  0.7500000000003466 1 0  0.7000000000006934 1 0  0.6500000000010401 1 0  0.6000000000013869 1 0  0.5500000000017335 1 0  0.5000000000020587 1 0  0.4500000000018723 1 0  0.4000000000016644 1 0  0.3500000000014564 1 0  0.3000000000012483 1 0  0.2500000000010403 1 0  0.2000000000008322 1 0  0.1500000000006241 1 0  0.100000000000416 1 0  0.05000000000020799 1 0  -0.1 1.05000000000004 0  -0.1 1.000000000000079 0  -0.1 0.9500000000001624 0  -0.1 0.9000000000003032 0  -0.1 0.850000000000444 0  -0.1 0.8000000000005848 0  -0.1 0.7500000000007256 0  -0.1 0.7000000000008665 0  -0.1 0.6500000000010508 0  -0.1 0.6000000000012352 0  -0.1 0.5500000000014196 0  -0.1 0.500000000001539 0  -0.1 0.4500000000014195 0  -0.1 0.4000000000013 0  -0.1 0.3500000000011588 0  -0.1 0.3000000000010178 0  -0.1 0.2500000000008986 0  -0.1 0.2000000000007579 0  -0.1 0.1500000000006174 0  -0.1 0.1000000000005272 0  -0.1 0.05000000000040083 0  -0.1 2.671196597248127e-13 0  -0.1 -0.0499999999998666 0  -0.0500000000000906 -0.1 0  -1.730560139634463e-13 -0.1 0  0.04999999999975802 -0.1 0  0.09999999999961506 -0.1 0  0.1499999999994613 -0.1 0  0.199999999999302 -0.1 0  0.2499999999991446 -0.1 0  0.2999999999990088 -0.1 0  0.3499999999988296 -0.1 0  0.3999999999986936 -0.1 0  0.4499999999985143 -0.1 0  0.4999999999984002 -0.1 0  0.5499999999985247 -0.1 0  0.5999999999986493 -0.1 0  0.6499999999987955 -0.1 0  0.6999999999989417 -0.1 0  0.7499999999990659 -0.1 0  0.7999999999992116 -0.1 0  0.8499999999993573 -0.1 0  0.8999999999994526 -0.1 0  0.949999999999584 -0.1 0  0.9999999999997226 -0.1 0  1.049999999999861 -0.1 0  1.1 -0.0500000000000906 0  1.1 -1.730560139634463e-13 0  1.1 0.04999999999975802 0  1.1 0.09999999999961506 0  1.1 0.1499999999994613 0  1.1 0.199999999999302 0  1.1 0.2499999999991446 0  1.1 0.2999999999990088 0  1.1 0.3499999999988296 0  1.1 0.3999999999986936 0  1.1 0.4499999999985143 0  1.1 0.4999999999984002 0  1.1 0.5499999999985247 0  1.1 0.5999999999986493 0  1.1 0.6499999999987955 0  1.1 0.6999999999989417 0  1.1 0.7499999999990659 0  1.1 0.7999999999992116 0  1.1 0.8499999999993573 0  1.1 0.8999999999994526 0  1.1 0.949999999999584 0  1.1 0.9999999999997226 0  1.1 1.049999999999861 0  1.05000000000004 1.1 0  1.000000000000079 1.1 0  0.9500000000001624 1.1 0  0.9000000000003032 1.1 0  0.850000000000444 1.1 0  0.8000000000005848 1.1 0  0.7500000000007256 1.1 0  0.7000000000008665 1.1 0  0.6500000000010508 1.1 0  0.6000000000012352 1.1 0  0.5500000000014196 1.1 0  0.500000000001539 1.1 0  0.4500000000014195 1.1 0  0.4000000000013 1.1 0  0.3500000000011588 1.1 0  0.3000000000010178 1.1 0  0.2500000000008986 1.1 0  0.2000000000007579 1.1 0  0.1500000000006174 1.1 0  0.1000000000005272 1.1 0  0.05000000000040083 1.1 0  2.671196597248127e-13 1.1 0  -0.0499999999998666 1.1 0  0.6552511496877029 0.7082994180835752 0  0.6811301824588969 0.6998584424686871 0  0.705772073546457 0.688825123192481 0  0.7287687993830736 0.6752261615375386 0  0.7495971168539182 0.6589778127623658 0  0.7668136845930432 0.6396785017497406 0  0.7800754407044912 0.6180504823239645 0  0.7909184345404618 0.5954236426786855 0  0.799319450698684 0.5719485272262282 0  0.8049439169599457 0.5478430904690348 0  0.8081492521109784 0.52353047959139 0  0.8089751874472507 0.4991548417662413 0  0.8072280224664086 0.4749383469805164 0  0.8029965106328018 0.4511321992933557 0  0.7962882598043566 0.4278719461385178 0  0.7869347034799158 0.4055642682563583 0  0.7751761077407631 0.3842907857785571 0  0.7610773808865821 0.3642239318491285 0  0.74478410339908 0.3455158405522319 0  0.7263396955952297 0.3282334370831177 0  0.7054588053179538 0.3127114936046783 0  0.6828521090208994 0.2987827421537954 0  0.6582666548809356 0.2874537770020594 0  0.6326099669126862 0.2787684531941354 0  0.6058186069027786 0.273364295698547 0  0.5785360363536651 0.2701914138408039 0  0.5507906468181785 0.2689853177571492 0  0.5231156957486607 0.2691632197859502 0  0.4956080041768255 0.270369067104101 0  0.4681335874454097 0.2721090655897472 0  0.4408594216440561 0.2745520519337615 0  0.4137922379261735 0.2778683874993976 0  0.387839196246791 0.2825140001042654 0  0.3633705097398083 0.2886623544346886 0  0.3398434816599277 0.2962784046959616 0  0.3178711388962894 0.3051248762768282 0  0.2972487011496842 0.3159163410500464 0  0.2780830764794429 0.3287758263590333 0  0.2604126725387436 0.3436080374050821 0  0.2442199327226997 0.360357743015182 0  0.2294673841463462 0.3788223169741475 0  0.2157076284635132 0.3991260947283894 0  0.2029916340175084 0.4210901066942359 0  0.1916013940107145 0.4445000205844189 0  0.1825974459917833 0.4694506986442631 0  0.1766962219829387 0.4954839895924599 0  0.1762699204725508 0.5225788707547429 0  0.181541046916931 0.5493131211485989 0  0.19175198065328 0.5743795721151737 0  0.205945006943624 0.5971668335968209 0  0.2219952201771212 0.6180025482609893 0  0.2394819347069668 0.6367929952352662 0  0.2575909115248607 0.6537486557356993 0  0.2764355399825161 0.6690482386187937 0  0.2963560218955705 0.682443180422633 0  0.3174647397704111 0.6938849311869433 0  0.3397493008612456 0.7033538083923933 0  0.3629880545458372 0.7111725544441847 0  0.3873267327735954 0.7173405432362241 0  0.4128233227511938 0.7219060343718844 0  0.4389886458342034 0.724749687555782 0  0.46562080453577 0.7262747735409072 0  0.4925627227985133 0.7268012967695933 0  0.5197437219252544 0.7263600955643951 0  0.5470037220913881 0.7251019443138907 0  0.5744000596806763 0.7232933215597099 0  0.6017107668697843 0.7195142000586781 0  0.2617942721552302 0.6256206277801821 0  0.2408813694729559 0.4065139378341203 0  0.7516876973032546 0.6211668098257638 0  0.7824732902399724 0.5337405524583013 0  0.6353764569862076 0.6937175921208308 0  0.6139132646686492 0.294123326816927 0  0.7177460438635044 0.3492809067030563 0  0.5141613516598877 0.2877550144465061 0  0.2876780959251761 0.356075447985173 0  0.3418508038193244 0.3198150357994196 0  0.4390127122643239 0.300124625568326 0  0.3184575497073122 0.6676957678503593 0  0.3828625525195336 0.6932138763875029 0  0.4570790170645862 0.7037275707565421 0  0.5346696919362173 0.7062896114487871 0  0.7671052674942439 0.4230977924132689 0  0.2045979285765961 0.5521695593578969 0  0.2060356401878157 0.4688488866874624 0  0.7047359530240609 0.6662057674220951 0  0.3868768323965647 0.3059003122317588 0  0.7791577299403338 0.4675868305888991 0  0.5862953019156497 0.7024418925310316 0  0.7715987829106564 0.5765502802704323 0  0.7456641072715942 0.383934872939408 0  0.6804439360348982 0.3195822440603292 0  0.5681762541768556 0.2859283855605572 0  0.2291015612406803 0.5926295168978334 0  0.1943962706448378 0.5083640421350403 0  0.4834680079020612 0.7055641591631898 0  0.476384409491711 0.6828156234844179 0  0.4490764952412737 0.6805636949689158 0  0.4689268937701839 0.6593913438332553 0  0.4391112336492892 0.6566052476480443 0  0.4557160658182429 0.6382086932853667 0  0.4816272024936175 0.6332895054151455 0  0.4295900200573274 0.6312426110663604 0  0.4520915506497404 0.6052852011740647 0  0.4102968936681829 0.6024390660323315 0  0.5011937380508681 0.5984896726001135 0  0.5415789400709942 0.6268954383108688 0  0.5491396573080194 0.5803850925399672 0  0.5839464043971979 0.6136934765122884 0  0.5963667115782606 0.5675717755420705 0  0.6298811264896528 0.6003769977607656 0  0.6437064591169194 0.5541775411918345 0  0.679300997764461 0.5824176054563067 0  0.6930875845195255 0.5466015481864664 0  0.657517983681194 0.5194503195245797 0  0.6998635480165455 0.5166543936927657 0  0.6771849202453806 0.4867150442241179 0  0.6277894082967209 0.4942105515879509 0  0.6415179001326117 0.4590628012728437 0  0.6896412929455819 0.4476309867498274 0  0.659104689307496 0.4206138741180052 0  0.610432848067457 0.4303245148563363 0  0.6245118758080639 0.3965642506497592 0  0.5797870198863627 0.402079614050954 0  0.5974177598243157 0.3670173258381496 0  0.5481419298593845 0.3679986612971889 0  0.5350831730054855 0.4053571848644592 0  0.5020933804524939 0.3693835042861899 0  0.4883947836857661 0.4096081817761036 0  0.4548310297428425 0.3725180913886352 0  0.4413640228920001 0.4124639988526534 0  0.66305729133196
[...]
<PointData  Scalars="u"> 
<DataArray  type="Float64"  Name="u"  format="ascii">-1.7684516702046428e-18  -1.8536143721524876e-18  -2.0572422492292135e-17  9.0800607152603066e-19  -2.9538822721128919e-20  1.8888474579144931e-19  -4.4550083097804158e-19  1.6491503356734477e-19  1.3096234661277359e-01  -6.1808609614437703e-02  -4.1815983338137586e-18  -2.6753391184850911e-17  2.9608347577210285e-18  -2.2214081938718206e-17  -1.7725359807383344e-17  -2.6508629909210619e-17  -1.9716620801716757e-17  7.2369554001299320e-17  -8.2090673332291318e-18  -3.3480637525972050e-17  4.3450907278109301e-18  -4.9484534833924394e-18  -2.9741253653833073e-17  3.4576267154863801e-17  1.9879658535192752e-17  -5.5175032509443525e-18  1.2729530512329406e-17  -2.5758736387216655e-17  2.8451545151774223e-17  -1.9218722643476268e-17  -2.1759869912300552e-17  -3.0901570881842616e-18  -4.0860862104559810e-17  -1.2677122139156620e-17  -3.0771245225498271e-17  4.6395415580366311e-17  -3.2761515083250537e-17  -5.6752483909948569e-17  5.2251893160213878e-17  -1.0293810597182173e-16  -8.7746146988994739e-17  -7.6584749533282031e-17  -1.5318564189340934e-17  1.3550435994150684e-18  -6.4692777555461694e-17  -2.9276487920538657e-17  -2.4384214084072727e-17  4.1295240755836324e-19  1.4406406439955776e-17  4.2251289688447050e-17  6.8582827654745107e-18  -1.6966186946636697e-16  1.8692002733075981e-16  1.3691302494388574e-17  -1.5866118921690215e-16  -2.0724246213991116e-17  1.6942648976153219e-16  -1.2665287724393340e-16  -4.1229674535587395e-16  -4.2882192390153960e-17  1.4728031629453984e-16  1.1110737940719750e-16  -1.7368762516217159e-17  1.8616923880052037e-16  1.1277757186073274e-17  -9.5966238949514940e-18  -9.1862645801293360e-17  -3.0352312050320168e-18  -3.0795479300569158e-17  -3.2046155480815511e-17  1.1555813210935180e-16  -5.8795081252911069e-18  4.0599522740995548e-18  2.8862529926080402e-17  -2.5612738125659977e-16  1.0999259570846963e-16  2.0985745640511558e-16  -9.7132644301878392e-17  8.5423512283526299e-17  3.5349197651038897e-16  3.2198571214861188e-16  -1.6896021987717968e-16  8.0054039627395654e-17  -3.0925774489100377e-18  7.3694353002054537e-17  7.6172779859205886e-17  -1.0290302958955964e-19  1.8760381693409238e-19  -1.7939966861880883e-18  -2.6183731821240263e-18  -1.1540936222178310e-18  -1.9799553583048766e-18  -3.5780179254813017e-18  -6.1913966105270305e-18  1.9402809065291748e-18  8.6075536728959380e-18  6.2147852818606488e-19  -4.8903109357875398e-18  -1.0606505859919225e-18  -5.2071646472324049e-19  -1.8409470054478916e-18  9.1727147836634553e-19  3.3953916048385612e-18  9.9458088526321595e-19  -9.0262430682114759e-19  5.3521428730398587e-19  9.9820953907405884e-19  1.3194139119415957e-18  -6.4976824352886980e-19  1.5625775125021531e-19  -3.9397534569699445e-19  -2.3742674240369802e-18  -3.2663123354038272e-18  -2.4699560104415747e-18  -3.7566240670270956e-18  -4.8648391319300014e-18  1.3245832659990392e-18  4.6378051314351098e-18  -5.3390455594497973e-18  -3.9013761489968107e-18  -8.0947130034897667e-19  -1.0255807228814366e-17  -1.5015727948927461e-17  -1.0129215737405459e-17  -1.7377619184347562e-19  -1.8435561428171130e-19  -7.1087142040725621e-18  -5.9421345247409493e-18  -2.3709253281838012e-18  -2.9677973109083317e-19  3.1099891205165695e-19  -5.0467322687159839e-20  2.1544368952589376e-20  2.2144593558247664e-19  -9.2388609577596019e-19  -7.2890385697364418e-19  -1.2415299135679466e-18  -9.8230962470302265e-19  3.6571593448726213e-18  -1.4767211373111364e-19  -6.1584996256543412e-18  -3.8490469427763168e-18  -1.2734196227352232e-18  -1.5098383226942901e-18  -5.3466115327885447e-18  -3.4985546084037270e-18  4.4758166504408338e-18  -8.9325220852740466e-19  -2.3175432122544623e-18  1.9932150253668473e-18  1.1636303353120736e-18  -1.4542710073717204e-18  -2.4944962272211429e-18  1.1533467634651468e-19  4.9642149165523821e-19  1.6117601240210597e-19  9.8332337595058023e-19  -7.8899808545782063e-19  -1.0202686785978049e-18  -4.0265291092022368e-18  -6.3200330073204046e-18  -2.0684412597246316e-18  1.6542789416483028e-18  1.6680250225051561e-18  -2.7641801274721924e-18  -1.8091847897021353e-18  -3.4312042234157093e-19  -5.7098415359632205e-19  -2.4125366122924254e-18  3.6453508204767482e-18  6.7479948161393876e-18  -1.9089523615020406e-18  -1.0798939404464135e-18  -4.8071496949131676e-19  -3.6689728175091019e-19  9.2319544227658094e-19  4.6735120584062360e-19  -3.0710057084135772e-19  -6.5527025914584119e-02  -6.8478233784261267e-02  -7.0662175662525389e-02  -7.1202050379837650e-02  -7.0056643730153509e-02  -6.6836644041650045e-02  -6.2211617414005868e-02  -5.7718990831391100e-02  -5.3758303822012909e-02  -5.0691838799162489e-02  -4.8815094560876439e-02  -4.8238415882540145e-02  -4.8922197595896555e-02  -5.0650082155823228e-02  -5.3301275482249791e-02  -5.6502980269011321e-02  -5.9870800020169049e-02  -6.2968647968065450e-02  -6.5720178260633921e-02  -6.7771460693726748e-02  -6.8615269221926650e-02  -6.8715679737918034e-02  -6.7560131740821219e-02  -6.5465226561939427e-02  -6.2193460075120770e-02  -5.8766120309352909e-02  -5.5616551974013148e-02  -5.3298635866409726e-02  -5.2113609614613005e-02  -5.2312975961279699e-02  -5.3803619529662255e-02  -5.6447258473198723e-02  -5.9270134688450535e-02  -6.1875506626487178e-02  -6.4444800652325676e-02  -6.6044615444576155e-02  -6.7066657950311068e-02  -6.6572645722202131e-02  -6.4919409505187708e-02  -6.2165591777919867e-02  -5.8843964541727578e-02  -5.5496664250313729e-02  -5.2578430679579589e-02  -5.0629880421996259e-02  -4.9560587611586993e-02  -4.9602583951826471e-02  -5.0748919396294542e-02  -5.2594296902684287e-02  -5.4758805257539768e-02  -5.7209089484876713e-02  -5.9613853408303635e-02  -6.1829422500332937e-02  -6.3836509005359504e-02  -6.5466218578761337e-02  -6.6291150070668353e-02  -6.6161620211408631e-02  -6.4893523031170117e-02  -6.3086717476170701e-02  -6.0847398492645019e-02  -5.8240892188334392e-02  -5.5819939632580182e-02  -5.3872837853594951e-02  -5.2801636662454202e-02  -5.2664017266282129e-02  -5.3814759353000043e-02  -5.6329009862049778e-02  -5.8900730363500922e-02  -1.8628011440051523e-02  -1.3800375501008280e-02  -2.5230428481034045e-02  -1.2252954664541283e-02  -2.1086275042656002e-02  -2.1862933753525798e-02  -2.4452153791715347e-02  -1.0281660130638706e-02  -1.6861724022560386e-02  -1.8528839180204953e-02  -4.1384348767468104e-03  -1.9305430746315941e-02  -1.5133848163233998e-02  -7.7594124625093540e-03  -9.1855916725278094e-03  -1.4497902570388110e-02  -2.0342390362272360e-02  -1.5463404059160435e-02  -2.9179303433646352e-02  -1.3139523686538470e-02  -1.0191800053799010e-02  -1.4201167877414654e-02  -1.6322608967013100e-02  -1.9209135119212756e-02  -2.7132024955018923e-02  -1.8026531118578562e-02  -1.9938311011568736e-02  -2.0515460353305506e-02  -7.2484178801885410e-03  1.7236647687248207e-02  1.6243314537023629e-02  4.2023117733345702e-02  4.0075802363979909e-02  6.2321680866434290e-02  7.0218840276494748e-02  6.3682507718175782e-02  8.8915398265256199e-02  8.0817725340598223e-02  9.7772827169147550e-02  7.3850735458546479e-02  1.0451073996564224e-01  7.5213911505873032e-02  9.8766174734395112e-02  6.7806514635947557e-02  8.3921138441931900e-02  5.2069291967604188e-02  5.7484511079079620e-02  8.4798443165643070e-02  5.8679108393028361e-02  7.3976970135852707e-02  1.0122636537800188e-01  8.9498121312146434e-02  5.7964905416604623e-02  6.5508655074963160e-02  9.3276148633707548e-02  6.9091348935069130e-02  8.8608154529885630e-02  5.8095660674591293e-02  7.1407585183407118e-02  9.9546771988654290e-02  7.6098384648109613e-02  1.0384998538338862e-01  7.4550387779670171e-02  9.9414414001198367e-02  3.8714689242016161e-02  6.6620074286309561e-02  8.3737990973725099e-02  4.2046814662347935e-02  5.8048096066029863e-02  6.5898626627586609e-02  9.6583574754964971e-02  8.1002344242060084e-02  1.0047223693162574e-01  8.1491075059189677e-02  6.2848317326897316e-02  6.0898392144725796e-02  7.1640863990388201e-02  5.0192585559812014e-02  5.4136297524875879e-02  3.9742896442406160e-02  1.1335549520053521e-01  7.3939740692205269e-02  5.0742715736859657e-02  1.1557118033032823e-01  3.9695138199654305e-02  2.6885884162311365e-02  1.6453752089576282e-02  2.0693752203494519e-02  5.0605727060519912e-02  3.8282663843026254e-02  5.4224689595736675e-02  4.7466923489043501e-02  1.3628611710643971e-02  6.8273893273240960e-02  3.1410473326281212e-02  3.8632614742455482e-02  3.2072318630213204e-02  3.1419309303734495e-02  1.6590226948793373e-02  1.3278664069087389e-02  3.4396118152772014e-02  1.8340160721138626e-02  4.7054938960018944e-02  2.3816848163692894e-02  2.8943674948754512e-02  2.1538337333816410e-02  2.8422055435493216e-02  1.0493496457725564e-02  1.1241510802702140e-01  4.4232575107291887e-02  1.6534350981006203e-02  1.7597927709674555e-02  1.0721932455723693e-02  2.7580584591981403e-02  1.6517575744781195e-02  2.4511718212694426e-02  4.9517441519619933e-02  2.7489972093448684e-02  2.0800195518731624e-02  6.1475955636267707e-03  9.2566918249528292e-03  1.5433502129593107e-02  2.3689192376308090e-02  -1.0973179803594210e-02  5.5240678445391947e-02  1.8940177382704589e-02  3.6422078789870908e-02  7.3458468065674028e-03  -3.4431663080087486e-04  4.5435113978448162e-02  2.5623769780211032e-02  1.4741114322802874e-02  4.7410723902154258e-03  6.7317357570692432e-03  4.6749609083554411e-02  2.4509385457698138e-02  1.2049499599588825e-01  2.8099348428571216e-02  3.3461498295620958e-02  1.0700895580356588e-02  3.3840261876485834e-03  3.6250833732665327e-02  1.1140930553034500e-01  2.8058484032629136e-03  4.0816269645415487e-02  1.5056835886033243e-02  4.5108803368162642e-02  1.2145690372718636e-01  2.7005662410968631e-03  -1.2129357465316425e-02  1.1055263605004226e-01  9.2307113974754704e-02  9.0241917874692434e-02  -1.3740806514424516e-02  -9.8554199762153454e-03  -6.6896629581659356e-04  -1.4541006729734685e-02  -8.5652860591752845e-03  -2.0008064398756725e-02  -1.4934664595681895e-02  -7.7248832994688968e-03  -4.8896702850470802e-03  1.6978860510640341e-02  1.9918938846613284e-03  -1.5911156930112389e-02  -6.4369230161461701e-03  -2.2991518262319172e-02  -1.1673998599761173e-02  -8.8033267196522720e-03  1.1219606518927960e-02  3.4768513982091263e-02  -2.0697809917256206e-02  1.2600591508970747e-02  -1.5776307595866380e-02  6.4162310458478903e-03  -1.1702161047395156e-02  9.5344132728195710e-03  -1.1900773236139960e-02  -1.1457467316463665e-02  -1.2477371745499299e-02  -1.3896890394122901e-02  -2.6987099928258935e-02  -1.5178800612153032e-02  -1.9415360917859822e-02  9.3140457656917357e-03  -8.7848176451232832e-03  -1.3121361295634730e-02  -2.2538996055430843e-02  -1.7028375497025183e-02  8.8712845322394245e-03  -1.2462313570604793e-02  -6.0866177452663208e-03  -6.1541885179603019e-03  1.0551704232646078e-01  -1.2769169763843964e-02  -1.7157132096887288e-02  -2.5934858362899847e-03  4.1342542915092886e-02  9.1010392953797831e-03  1.1255547921604457e-03  1.1095811341037767e-01  1.2243592682019064e-01  1.2707006432570503e-01  -2.5606001489165892e-02  6.9887796709098803e-03  -3.1947101113853009e-02  6.0777999235027379e-03  -2.8181378731191975e-02  -1.7727738827773173e-02  1.2502481261750728e-01  4.9561782384800806e-03  2.3449721283203182e-03  -1.8796072589514917e-02  1.2178543378188007e-01  9.6301875874554958e-03  7.7249353174028458e-03  -1.0852686601971867e-02  3.7891661029665941e-03  5.7478157950682342e-03  3.8840363852611325e-02  -3.2459991177413224e-02  1.0259174611661686e-02  1.1590799311134908e-01  3.9221342192644934e-02  -2.3909555610862967e-02  -2.2491852570179105e-02  3.1162433812281978e-02  -9.2696745094644466e-03  7.1174087728209942e-03  6.8772868482684060e-02  5.6958534059467084e-03  -1.3727106314047071e-02  3.5443133882607416e-03  1.2965904172765159e-03  1.0787251635132127e-01  1.9127169822659107e-02  -2.0633112997039023e-02  -3.2997660068875188e-03  4.4359074610490518e-02  2.8106875329243247e-02  6.7633921442130138e-02  8.4394480531640725e-03  -4.4483705697043506e-03  6.2715467886324183e-03  5.1779543918168119e-03  1.8896121892424195e-02  -3.8756623432662684e-04  2.7134931475945485e-02  2.9311025751389566e-02  4.6568995861486301e-02  5.4586957715871305e-02  2.8228297318112845e-02  -3.0290426392959185e-02  -3.5929321106107793e-03  7.3406215995730044e-03  2.9595985538747763e-02  9.3857240631708902e-03  -6.4757502762079876e-03  4.6753665744461763e-02  2.9366395497097103e-02  5.0706154880301085e-02  4.0669407569745360e-02  1.1805421967719037e-02  3.0944268024932321e-02  -2.4651024570533274e-02  2.0973506970788494e-02  9.8588018269177527e-02  2.5428597531870347e-02  2.7619062309365769e-02  4.5340875238913420e-02  -2.2268535640598108e-02  4.4825538261042991e-02  1.2414955048434116e-01  4.3052362705799756e-02  4.3821796700273027e-03  5.5798484294162932e-02  5.3415756016601770e-02  3.9095982746758566e-02  -3.7632328373592258e-03  3.4490227139650304e-02  3.6977611534323041e-03  3.4085527557091377e-02  -9.3363645977455251e-02  -9.2328580097012683e-02  -9.4872448698695599e-02  -9.7308150297940724e-02  -9.3118770012853846e-02  -8.9884446416703928e-02  -9.1691095509185236e-02  -9.4198426501322166e-02  -8.5192754292713252e-02  -8.4245241213743327e-02  -8.6386564499017007e-02  -8.5170539757888769e-02  -8.3164165148775560e-02  -9.5571009903167317e-02  -8.2184567277691495e-02  -5.2090619329582387e-02  -4.2523841506790221e-02  -4.3568284521280934e-02  -8.2914176310819362e-02  -4.9488808805528903e-02  -4.7049678597433836e-02  -9.1105564253089841e-02  -8.4336186544324246e-02  -7.4308976858529843e-02  -5.2211468696232201e-02  -7.0887703513762390e-02  -4.7144134305678050e-02  -8.0687819835084176e-02  -6.1327555050050706e-02  -8.7654047909467167e-02  -7.8856275882540502e-02  -7.3815098354648487e-02  -5.5124450825423804e-02  -6.2515449620728358e-02  -6.9834493032031333e-02  -5.9107380294756033e-02  -6.2327123746890478e-02  -3.1333219419337442e-02  -4.1008954327300166e-02  -3.5957454085973360e-02  -8.1137730073328196e-02  -5.8479177144287242e-02  -6.6779501017987269e-02  -7.0150586472532486e-02  -7.1096007682593054e-02  -2.1482188933230711e-02  -1.9949101552704705e-02  -7.1497432236814540e-02  -7.6174620165520665e-02  -5.4570193775550654e-02  -4.6377549030513825e-02  -4.4374464811605195e-02  -4.1754813616469308e-02  -4.1547723332212613e-02  -4.6684182015394524e-02  -3.9600143790421573e-02  -4.2666424798539854e-02  -3.9067139358439695e-02  -3.0386006383768881e-02  -2.9493482341583516e-02  -7.0553813503711232e-02  -7.2932449876097163e-02  -7.3018278882478291e-02  -7.3516739142680712e-02  -7.5576406480647229e-02  -7.2445300443419541e-02  -6.8244933728372328e-02  -7.4304540570108393e-02  -7.1715013889547000e-02  -7.6216789020359860e-02  -7.4372250181470700e-02  -9.4846754996254279e-02  -1.0599703817977392e-01  -1.0739014664126355e-01  -1.1914248963524844e-01  -1.2115586270165668e-01  -1.1712538427755430e-01  -1.3115978852557852e-01  -1.3227131878884044e-01  -1.3846662532997236e-01  -1.3973186852216130e-01  -1.3418665775104138e-01  -1.3806216822715317e-01  -1.3226087149770552e-01  -1.3804265228447454e-01  -1.3200128378974069e-01  -1.2574962435689524e-01  -1.1952131457802306e-01  -1.2010369014262627e-01  -1.1319720059428975e-01  -1.1619150263049870e-01  -1.0479808546154465e-01  -1.0532834936690565e-01  -9.6008615058005439e-02  -1.3556444861911360e-01  -1.3594376923817841e-01  -9.5400567910893797e-02  -8.8703025518125866e-02  -9.9537177616429842e-02  -1.3188094424972902e-01  -8.0765934604184519e-02  -1.2475541311626780e-01  -1.0947066092141922e-01  -7.3900319665763520e-02  -8.1233050413806490e-02  -6.9843563214987289e-02  -7.7309029281236841e-02  -6.8790429420016466e-02  -7.6924271472300007e-02  -7.0735193289737402e-02  -7.9297347619438491e-02  -7.4324181056311528e-02  -8.4028148829614721e-02  -8.0595651190974824e-02  -9.2229172071397594e-02  -8.8503882100145023e-02  -1.0122334267054964e-01  -9.6911207820549655e-02  -1.1160825023314318e-01  -1.0528725125318786e-01  -1.2107552323372299e-01  -1.1172754710191105e-01  -1.2754960382378469e-01  -1.2997592537900801e-01  -1.3659158236587562e-01  -1.2978549329107861e-01  -1.3711035828386545e-01  -1.4014328521295058e-01  -1.3903422359458381e-01  -1.4005304820604009e-01  -1.2535493263743763e-01  -1.3697044901217556e-01  -1.3770739664478807e-01  -1.2862704051331875e-01  -1.1208060936277574e-01  -1.0544770622661917e-01  -1.3143626254844243e-01  -1.3353894505685188e-01  -1.3230934515511431e-01  -1.2975003116421954e-01  -1.2605652198117856e-01  -1.2919763922729277e-01  -1.2531127110929619e-01  -1.2366950428802992e-01  -1.2366525130807761e-01  -1.1657111365719376e-01  -1.1698534758009080e-01  -1.2122582733305040e-01  -1.1980630413339709e-01  -1.1771694413426491e-01  -1.2089047642016210e-01  -1.1496776694170339e-01  -1.2019304871000502e-01  -1.2065643703670810e-01  -1.2431595779868682e-01  -1.1860213389759636e-01  -1.2673905661833793e-01  -1.2474074853000393e-01  -1.3104367177979445e-01  -1.2719805927315292e-01  -1.3462483313884799e-01  -1.3211833679002694e-01  -1.3819460290842150e-01  -1.3537667063244990e-01  -1.4063648312262705e-01  -1.3760629649710773e-01  -1.4113681457242080e-01  -1.3858476216801408e-01  -1.3865551931845665e-01  -1.3693129297717488e-01  -1.3083768837048942e-01  -1.3316729460483220e-01  -1.2913146398948724e-01  -1.2287757404219919e-01  -1.1821749314501159e-01  -1.2597766954217954e-01  -1.1716948107605722e-01  -1.2513709802241074e-01  -1.1270140733667111e-01  -1.0695845789191835e-01  -1.0843471633796292e-01  -1.0599034773897825e-01  -1.2250222085861101e-01  -1.1006611648013054e-01  -9.8305015251311204e-02  -9.3000128210523642e-02  -4.9923225230781097e-02  -9.4564069407422263e-02  -1.2867941544445355e-01  -1.1602916037078463e-01  -1.1734606012175053e-01  -1.1186627779461635e-01  -1.0760864055122202e-01  -1.1582308913287889e-01  -8.9062095643066261e-02  -8.7599822670717253e-02  -8.6172415820989681e-02  -9.5108681958392075e-02  -7.9628483957966747e-02  -1.0914345427936710e-01  -1.0646058227227752e-01  -1.1073109116969472e-01  -8.5654038556077686e-02  -6.4967818988327916e-02  -1.0438297287245946e-01  -1.0214265659578045e-01  -1.1491103741306045e-01  -1.3168559410177613e-01  -1.2666974786498736e-01  -1.2721396311611533e-01  -1.2039137537187013e-01  -1.2319160684230801e-01  -1.1843800595644442e-01  -1.1861739883140184e-01  -1.1918229497154247e-01  -1.1823202109018581e-01  -1.1451920390393210e-01  -1.1831389154703706e-01  -1.1417420422640559e-01  -1.1674959605393470e-01  -1.1732538042603546e-01  -1.2066619753722713e-01  -1.1343166671252411e-01  -1.1995262160157678e-01  -1.2224445845101911e-01  -1.2648867534771813e-01  -1.1901199153595156e-01  -1.2788275542027497e-01  -1.2960739884936448e-01  -1.3445010196730414e-01  -1.3043900202516814e-01  -1.3753104485177375e-01  -1.3655647407014998e-01  -1.4059939968121116e-01  -1.3719363257519396e-01  -1.4052838945264173e-01  -1.3952468210811306e-01  -1.3836289684038577e-01  -1.3427126375401582e-01  -1.3144569635260933e-01  -1.3375846246188866e-01  -1.2591461557834158e-01  -1.2038971630797650e-01  -1.1490267869125960e-01  -1.2209201996005889e-01  -1.1856359252407032e-01  -1.1551469076783914e-01  -1.1797242920373997e-01  -1.1276717818594932e-01  -1.0619879201825631e-01  -1.0259436664896540e-01  -1.0357635739748677e-01  -9.5578218069792012e-02  -9.1923164889225348e-02  -9.1161731754507452e-02  -8.4922576803832736e-02  -1.0487937045894064e-01  -1.0086822245042652e-01  -1.1149967683909377e-01  -9.6321349343852100e-02  -8.7259711152021496e-02  -9.1632642867494216e-02  -1.1841301149701842e-01  -8.7186429244524105e-02  -1.0095888315854257e-01  -7.7727171767615746e-02  -1.0307281410443810e-01  -9.9979037950904528e-02  -8.6094447429294355e-02  -1.0959150723310380e-01  -7.8377202630330253e-02  -7.7236238152484524e-02  -8.1009590757337255e-02  -7.9440438927725246e-02  -7.4827482924583522e-02  -1.0851634944272917e-01  -9.1061577820370401e-02  -9.7256586402526990e-02  -1.0323946839146975e-01  -1.0753789248180509e-01  -9.9160