<?xml version="1.0"?>
<VTKFile type="UnstructuredGrid"  version="0.1"  >
<UnstructuredGrid>
<Piece  NumberOfPoints="1277" NumberOfCells="2456">
<Points>
<DataArray  type="Float64"  NumberOfComponents="3"  format="ascii">0 0 0  0 1 0  1 1 0  1 0 0  1.1 -0.1 0  -0.1 -0.1 0  1.1 1.1 0  -0.1 1.1 0  0.5072825101296985 0.5049643117453936 0  0.627823653412412 0.7144373382810978 0  0 0.9499999999997918 0  0 0.8999999999995836 0  0 0.8499999999996529 0  0 0.7999999999999998 0  0 0.7500000000003466 0  0 0.7000000000006934 0  0 0.6500000000010401 0  0 0.6000000000013869 0  0 0.5500000000017335 0  0 0.5000000000020587 0  0 0.4500000000018723 0  0 0.4000000000016644 0  0 0.3500000000014564 0  0 0.3000000000012483 0  0 0.2500000000010403 0  0 0.2000000000008322 0  0 0.1500000000006241 0  0 0.100000000000416 0  0 0.05000000000020799 0  0.04999999999989965 0 0  0.09999999999981467 0 0  0.1499999999997036 0 0  0.1999999999995579 0 0  0.2499999999994121 0 0  0.2999999999992664 0 0  0.3499999999991206 0 0  0.3999999999989749 0 0  0.4499999999988292 0 0  0.4999999999986943 0 0  0.5499999999988151 0 0  0.5999999999989468 0 0  0.6499999999990784 0 0  0.69999999999921 0 0  0.7499999999993417 0 0  0.7999999999994734 0 0  0.8499999999996051 0 0  0.8999999999997368 0 0  0.9499999999998684 0 0  1 0.04999999999989965 0  1 0.09999999999981467 0  1 0.1499999999997036 0  1 0.1999999999995579 0  1 0.2499999999994121 0  1 0.2999999999992664 0  1 0.3499999999991206 0  1 0.3999999999989749 0  1 0.4499999999988292 0  1 0.4999999999986943 0  1 0.5499999999988151 0  1 0.5999999999989468 0  1 0.6499999999990784 0  1 0.69999999999921 0  1 0.7499999999993417 0  1 0.7999999999994734 0  1 0.8499999999996051 0  1 0.8999999999997368 0  1 0.9499999999998684 0  0.9499999999997918 1 0  0.8999999999995836 1 0  0.8499999999996529 1 0  0.7999999999999998 1 0  0.7500000000003466 1 0  0.7000000000006934 1 0  0.6500000000010401 1 0  0.6000000000013869 1 0  0.5500000000017335 1 0  0.5000000000020587 1 0  0.4500000000018723 1 0  0.4000000000016644 1 0  0.3500000000014564 1 0  0.3000000000012483 1 0  0.2500000000010403 1 0  0.2000000000008322 1 0  0.1500000000006241 1 0  0.100000000000416 1 0  0.05000000000020799 1 0  -0.1 1.05000000000004 0  -0.1 1.000000000000079 0  -0.1 0.9500000000001624 0  -0.1 0.9000000000003032 0  -0.1 0.850000000000444 0  -0.1 0.8000000000005848 0  -0.1 0.7500000000007256 0  -0.1 0.7000000000008665 0  -0.1 0.6500000000010508 0  -0.1 0.6000000000012352 0  -0.1 0.5500000000014196 0  -0.1 0.500000000001539 0  -0.1 0.4500000000014195 0  -0.1 0.4000000000013 0  -0.1 0.3500000000011588 0  -0.1 0.3000000000010178 0  -0.1 0.2500000000008986 0  -0.1 0.2000000000007579 0  -0.1 0.1500000000006174 0  -0.1 0.1000000000005272 0  -0.1 0.05000000000040083 0  -0.1 2.671196597248127e-13 0  -0.1 -0.0499999999998666 0  -0.0500000000000906 -0.1 0  -1.730560139634463e-13 -0.1 0  0.04999999999975802 -0.1 0  0.09999999999961506 -0.1 0  0.1499999999994613 -0.1 0  0.199999999999302 -0.1 0  0.2499999999991446 -0.1 0  0.2999999999990088 -0.1 0  0.3499999999988296 -0.1 0  0.3999999999986936 -0.1 0  0.4499999999985143 -0.1 0  0.4999999999984002 -0.1 0  0.5499999999985247 -0.1 0  0.5999999999986493 -0.1 0  0.6499999999987955 -0.1 0  0.6999999999989417 -0.1 0  0.7499999999990659 -0.1 0  0.7999999999992116 -0.1 0  0.8499999999993573 -0.1 0  0.8999999999994526 -0.1 0  0.949999999999584 -0.1 0  0.9999999999997226 -0.1 0  1.049999999999861 -0.1 0  1.1 -0.0500000000000906 0  1.1 -1.730560139634463e-13 0  1.1 0.04999999999975802 0  1.1 0.09999999999961506 0  1.1 0.1499999999994613 0  1.1 0.199999999999302 0  1.1 0.2499999999991446 0  1.1 0.2999999999990088 0  1.1 0.3499999999988296 0  1.1 0.3999999999986936 0  1.1 0.4499999999985143 0  1.1 0.4999999999984002 0  1.1 0.5499999999985247 0  1.1 0.5999999999986493 0  1.1 0.6499999999987955 0  1.1 0.6999999999989417 0  1.1 0.7499999999990659 0  1.1 0.7999999999992116 0  1.1 0.8499999999993573 0  1.1 0.8999999999994526 0  1.1 0.949999999999584 0  1.1 0.9999999999997226 0  1.1 1.049999999999861 0  1.05000000000004 1.1 0  1.000000000000079 1.1 0  0.9500000000001624 1.1 0  0.9000000000003032 1.1 0  0.850000000000444 1.1 0  0.8000000000005848 1.1 0  0.7500000000007256 1.1 0  0.7000000000008665 1.1 0  0.6500000000010508 1.1 0  0.6000000000012352 1.1 0  0.5500000000014196 1.1 0  0.500000000001539 1.1 0  0.4500000000014195 1.1 0  0.4000000000013 1.1 0  0.3500000000011588 1.1 0  0.3000000000010178 1.1 0  0.2500000000008986 1.1 0  0.2000000000007579 1.1 0  0.1500000000006174 1.1 0  0.1000000000005272 1.1 0  0.05000000000040083 1.1 0  2.671196597248127e-13 1.1 0  -0.0499999999998666 1.1 0  0.6543207446434252 0.7072770389973686 0  0.6799260386001709 0.6980437512601861 0  0.7041868525077933 0.6865072433414647 0  0.7267057613927427 0.6725833648231978 0  0.7470347897001615 0.6561851389757155 0  0.7640979135444869 0.6371139727121031 0  0.7777622766199528 0.6159304134494011 0  0.7889573746282025 0.5935778696715468 0  0.7977967120408738 0.5703061703599966 0  0.8040408940357401 0.5463370135919624 0  0.8078234711521582 0.5221197504100585 0  0.809292477889738 0.4977721340013489 0  0.8080933462257032 0.4735524997161186 0  0.804372617405957 0.4497639729722514 0  0.7981304326911959 0.4265682135237631 0  0.7892178877524526 0.404407384807945 0  0.7778002794661585 0.3834289856552363 0  0.7639207882446625 0.363835997776459 0  0.7477603003556854 0.3457550780264771 0  0.7293083589407869 0.3292339954736694 0  0.708300495777355 0.3145259558184402 0  0.6853743611996398 0.3013165254894424 0  0.6601390140219461 0.2907369821275663 0  0.6338429120978537 0.2827875941299094 0  0.6065366161918027 0.277413781113667 0  0.5786661135165828 0.2737342794225227 0  0.5500769279373069 0.2718031148651772 0  0.5216205126263427 0.2710291093341345 0  0.4934101633298107 0.2709097009111747 0  0.4652382555534753 0.271144588848171 0  0.4373126490092694 0.2720084889378417 0  0.4096291438931398 0.273865480061152 0  0.3834559323735738 0.2773450532313356 0  0.3591256292477624 0.2825500210118615 0  0.3360144007373496 0.2895667556541098 0  0.3149508037934463 0.2979727649015075 0  0.2955366659887873 0.3085915916702616 0  0.2778124659720497 0.3215342837739985 0  0.2617756762433466 0.3366609214482156 0  0.2473917592868442 0.3539022225739335 0  0.2345137374950055 0.3729867914941313 0  0.2225816509792034 0.3943500922639233 0  0.2118351654934394 0.4177087664220651 0  0.2024779709543588 0.4425617206209704 0  0.1953569558890944 0.4687274597243891 0  0.1910740128860941 0.4955109337310544 0  0.1908196027833302 0.5230910633224116 0  0.1957025390769477 0.5502952722805625 0  0.2046369611475646 0.5763264351150925 0  0.216843959677956 0.6008397306334863 0  0.2310655770092371 0.6232462428398994 0  0.2467374301416602 0.6433946368791726 0  0.2629249754685912 0.6613213110801517 0  0.2798777775520009 0.677276130659068 0  0.2980294010944646 0.6911473946382016 0  0.3176231733141376 0.702912241941218 0  0.3386727542173412 0.7125485338696654 0  0.3610082744819411 0.7202748862338947 0  0.3848023496219856 0.7260449524867485 0  0.4101534768152889 0.7300348885874977 0  0.436408793551905 0.7320549052445001 0  0.4632746107109484 0.7325540230010512 0  0.4905268179741478 0.7319506130755056 0  0.5180581812868397 0.7304246693679283 0  0.5456434282682974 0.7281841138308055 0  0.5733718080047324 0.7255270555092455 0  0.6009079699403249 0.720641264384666 0  0.2681619863441874 0.6317317846611472 0  0.2468779709673626 0.4021823916792075 0  0.7495276298734468 0.6189480458761905 0  0.7819445501092753 0.5322699244886805 0  0.6342301529546878 0.6935662254903141 0  0.614703639272841 0.297444675951705 0  0.720249018758137 0.3500658338037101 0  0.5125749688132665 0.288755962194738 0  0.2889011784661357 0.3501160612780672 0  0.339601739940103 0.313836557533951 0  0.4361341392915317 0.297524232764592 0  0.3201459826645831 0.6756093720815983 0  0.3816023088468658 0.7012436067997418 0  0.4551531901207266 0.7099225956330567 0  0.5332100820019195 0.7097192626958758 0  0.7688935544317886 0.4221969605099941 0  0.21698416395551 0.5538575075520915 0  0.2171506733280016 0.4675856678576532 0  0.7029053685056148 0.6641903413210537 0  0.3836980384934509 0.3011005831359913 0  0.7801037434022604 0.4663875983109106 0  0.585167328613196 0.7041366132136641 0  0.7701504594200457 0.5748108714022266 0  0.7479866617609224 0.3836859572278785 0  0.682656097592081 0.3216225875855019 0  0.5679249792272885 0.2886826562114937 0  0.2386536333434974 0.5967077129623436 0  0.2075234052446748 0.50859715199726 0  0.4816287314841304 0.7108264184830128 0  0.4749302690103244 0.6879460024499524 0  0.4477361347666691 0.6864949802590176 0  0.4679627859778993 0.66426122678468 0  0.4384740237209395 0.6621677508876873 0  0.4553080830838612 0.6428778235679063 0  0.4810185854178574 0.6372734935580908 0  0.4297090284551597 0.6362597727092946 0  0.4523196243588282 0.6091470609844832 0  0.4114385779822378 0.6068142072004671 0  0.5008543887406408 0.6013374691702627 0  0.5406342752484969 0.6293255722159422 0  0.5485541644495894 0.5820644002737705 0  0.5828800114363079 0.6149503717430442 0  0.5956186030538086 0.5682873381040173 0  0.6287012342097209 0.6004902288527092 0  0.6429463683455922 0.5540432273660946 0  0.6781066967752123 0.5815728936959641 0  0.6923662546471355 0.5457433670989665 0  0.6571763481102563 0.5192069282440718 0  0.6996251552682275 0.5159005261052441 0  0.6773328658748095 0.4864095772070977 0  0.6276906414749378 0.4943919001981799 0  0.6418257121715383 0.4592774226483027 0  0.6904166606220382 0.4475026075162015 0  0.6599413933077097 0.4210427246592997 0  0.6107608028603718 0.4308936025286086 0  0.6251542871349151 0.3974533487078908 0  0.579930579063878 0.4028184255490909 0  0.5977733973902125 0.3683048280504868 0  0.5478402654811647 0.3687102558269726 0  0.5349286633367444 0.4056939085546921 0  0.501388397108279 0.3691577554629425 0  0.488222958668302 0.4093036249812285 0  0.4540551450867634 0.3710927759643814 0  0.4415424982882108 0.4113804037007449 0  0.6616123103604958 
[...]
<PointData  Scalars="u"> 
<DataArray  type="Float64"  Name="u"  format="ascii">-2.5077505199849422e-18  -3.4129571151218597e-18  -2.2671299727628523e-17  6.5832684272294608e-19  -2.5848393221594462e-20  2.2172512988529488e-19  -3.7393981969268496e-19  2.6836914470276591e-19  1.3279404181693258e-01  -5.9773047255913453e-02  -6.6891631204701676e-18  -3.0054495437509550e-17  1.5269563176049354e-17  7.7043691820688338e-19  -2.2540817195232568e-17  -2.0711339161685840e-17  -1.3461255561897380e-17  1.0200461985815557e-16  -4.8452063433990541e-18  -3.3926939052482403e-17  5.4490494987863488e-18  -1.8711706412883776e-17  -3.5059658373765736e-17  5.0170788152508945e-17  1.2708538848763572e-17  -1.2166081302365694e-17  1.9521097878841007e-19  -4.3565897244162730e-17  2.6935552061367208e-17  -2.2420490371935064e-17  -2.1878287061739376e-17  -1.4024007166253302e-17  -5.0944066933570041e-17  -1.3267548921527213e-17  -2.8301273723135475e-17  5.3912602054757116e-17  -2.5190211786848182e-17  -4.7527361314629790e-17  4.9437651226283667e-17  -1.0086686045000941e-16  -1.0780438985254539e-16  -7.7508902147545959e-17  -1.7226938557493479e-17  2.7038133762509767e-18  -7.6930272886949339e-17  -1.8323719477532563e-17  -1.5651222561691176e-17  -2.5052054573970868e-19  1.4120388200265299e-17  4.3086066686541685e-17  1.5357031158215109e-17  -1.8536316993752842e-16  1.6969148777682675e-16  2.2317029800253211e-17  -1.5796701574416237e-16  -1.9456099226413352e-17  1.6514151687231058e-16  -1.2602354711735456e-16  -4.1841893029294645e-16  -4.6485826992996407e-17  1.5001277497972668e-16  1.0771619772211639e-16  -1.5025118496074366e-17  1.8300049601226989e-16  1.7518890589351991e-17  -1.1235571466817406e-18  -9.5290382846702528e-17  -3.6078280599107652e-18  -3.1967854577513767e-17  -5.2372211637626099e-17  1.2399050227471590e-16  7.3033247338059740e-19  1.0875117231288989e-17  4.0122935435449846e-17  -2.3951995867572525e-16  1.0574458212193251e-16  2.1313658440229352e-16  -9.1448253515080655e-17  7.9103785340671963e-17  3.4589309909151442e-16  3.0753886987784461e-16  -1.7742888935227788e-16  6.8348600950946205e-17  -2.6954147840762062e-17  7.6968349939473018e-17  8.3822906717911508e-17  -1.4109958642888481e-19  1.5231360123939561e-19  -2.6590251755873724e-18  -3.2518478435807774e-18  1.0417025185195428e-18  4.4246275114515586e-19  -3.3235904706808156e-18  -6.0895470522763747e-18  3.3932057802352509e-18  1.1400918098948757e-17  1.8995138965357773e-18  -5.0011524129624080e-18  -1.3166190914339164e-18  -2.1054649265313218e-18  -2.0106322938795751e-18  2.2458015895177250e-18  3.0890330204078162e-18  -5.7885659988864416e-20  -2.6080947073521575e-18  -2.3548380346162996e-18  3.2995274022670055e-20  1.5756241027478250e-18  -7.5362692990582839e-19  1.9295945391055248e-19  -6.0719750314812798e-19  -2.5740002380041576e-18  -3.7086334634951868e-18  -3.9262885104075866e-18  -5.1713259168256678e-18  -4.8996844016953141e-18  1.1121740698239713e-18  4.9760150305960695e-18  -3.8201537761525468e-18  -2.9942851038699108e-18  -7.9163968650055355e-19  -1.1002428281196826e-17  -1.6818302528691807e-17  -1.1243671312030837e-17  5.6477262349129577e-19  3.8999095731500887e-20  -8.5784469717731431e-18  -4.7916348568699670e-18  -9.9586276997879675e-19  -2.6390586707884482e-19  1.8098406725071176e-19  -2.1486868152646355e-20  3.7408040462839677e-21  2.3580248806752327e-19  -1.0625896574413295e-18  -2.1777677689287362e-19  -6.6015888043297558e-19  -3.0227990187210393e-18  1.8884948655334831e-18  2.9155123422219291e-19  -5.5091851275881029e-18  -4.0423913489789442e-18  -1.5034911738674196e-18  -1.7609550049253622e-18  -6.0645424931967869e-18  -3.9015636515872491e-18  4.5063471496036009e-18  -3.6565380931187905e-19  -2.5520329202728694e-18  2.5927242367778648e-18  2.2463728019523050e-18  -5.5145477492254667e-19  -2.7068890900560541e-18  -3.2075773760709247e-19  5.1783215937432964e-19  8.3783418055079896e-20  9.0990701472060124e-19  -6.3508900907077034e-19  -2.1495988673972152e-18  -5.9216575494130836e-18  -5.9345342481917044e-18  -8.7959962602677673e-19  3.0646782742908255e-18  3.7322332404247397e-18  -1.0623625889259984e-18  -1.8339183967550027e-18  4.2890052792696366e-20  1.0728952297683078e-19  -3.0165157137050164e-18  2.0583575134034591e-18  5.9320108900148792e-18  -3.1476492375790379e-18  -3.2088788875541674e-18  -3.3567190801472168e-18  -3.6790032523544150e-19  2.0355707956777814e-18  4.2587864669602084e-19  -4.5006079705631876e-19  -6.3303418124265071e-02  -6.6181091214057367e-02  -6.8403935802236318e-02  -6.8988856951957292e-02  -6.7938241113610506e-02  -6.5077548777748684e-02  -6.1005307116062737e-02  -5.6860592901153112e-02  -5.3160151975393463e-02  -5.0336415446794805e-02  -4.8634364412384806e-02  -4.8237393754917104e-02  -4.9074002438535561e-02  -5.0970648736625948e-02  -5.3803828596366746e-02  -5.7195582107537196e-02  -6.0678010810081145e-02  -6.3755548410439525e-02  -6.6328890404874163e-02  -6.8024313902454905e-02  -6.8358808579572994e-02  -6.7858879820463153e-02  -6.5883722535310510e-02  -6.2976692167716397e-02  -5.9358064396218387e-02  -5.5919652697999533e-02  -5.2909483039362187e-02  -5.0930532137797468e-02  -5.0444550174966171e-02  -5.1561835224512881e-02  -5.4142041667213592e-02  -5.7890481456024434e-02  -6.1663129486831156e-02  -6.5044278694283073e-02  -6.8117057637770304e-02  -7.0015986804099067e-02  -7.1033211774516852e-02  -7.0324133856404833e-02  -6.8303903226829235e-02  -6.5047564224290505e-02  -6.1171522064205876e-02  -5.7194504530615670e-02  -5.3606123131136836e-02  -5.1121852942435021e-02  -4.9726049825330937e-02  -4.9542323108164962e-02  -5.0795058988793024e-02  -5.2409051767911975e-02  -5.4477724559654023e-02  -5.7413193493067373e-02  -6.0321897040213207e-02  -6.3077101001208044e-02  -6.5603488707713847e-02  -6.7619727154916653e-02  -6.8724182561674341e-02  -6.8701640172005432e-02  -6.7378288329950367e-02  -6.5273475982336432e-02  -6.2490246558490559e-02  -5.9249082207787060e-02  -5.6105792004081376e-02  -5.3445618842734362e-02  -5.1743374659441642e-02  -5.1170141641305823e-02  -5.2094804235730610e-02  -5.4581709072307451e-02  -5.7026095783648950e-02  -1.9339837061322265e-02  -1.4884997610677821e-02  -2.3428474565146511e-02  -1.1838444561060164e-02  -1.8905940612892462e-02  -1.9288926534389773e-02  -2.4782058390416820e-02  -8.3086153483458436e-03  -1.9747399947767707e-02  -2.1897034706764240e-02  -4.7059349634163148e-03  -2.1310106233644353e-02  -1.6868042692203516e-02  -7.7114695584868855e-03  -7.6707933517286041e-03  -1.5157123951209408e-02  -1.8791276528600194e-02  -1.4427446555850012e-02  -2.6852998633231515e-02  -1.5531832402844243e-02  -1.0466282818240196e-02  -1.2407716135579536e-02  -1.5347993410324131e-02  -1.9963697762791933e-02  -2.6466169908094576e-02  -1.5312084664108295e-02  -1.9455960596324814e-02  -1.8951148068079557e-02  -6.5649309732518082e-03  1.7946961611850734e-02  1.6440108004463383e-02  4.3003403645400000e-02  4.0707638906261646e-02  6.3516256577999697e-02  7.1569481920530906e-02  6.4640030061411238e-02  9.0301108769924532e-02  8.1898046633901878e-02  9.9469043467883725e-02  7.5534578863314855e-02  1.0629637291259407e-01  7.6971922061287265e-02  1.0037240575638945e-01  6.9520783598226249e-02  8.5230425713164928e-02  5.3473638608410756e-02  5.8497243129064090e-02  8.5755774826156456e-02  5.9330548857015858e-02  7.4540773273249400e-02  1.0227633300049299e-01  9.0246686783111416e-02  5.8164869046471515e-02  6.5912817440362689e-02  9.4181201970910469e-02  6.9935134834900603e-02  8.9783710126550606e-02  5.9139359191336206e-02  7.2663008640637766e-02  1.0083021594644639e-01  7.7185408046947332e-02  1.0511083577859386e-01  7.5168390358202677e-02  1.0048594928153556e-01  4.0293631771535207e-02  6.6747378383929787e-02  8.4270555383254425e-02  4.3346627817723610e-02  5.8812681663774936e-02  6.6729023454516645e-02  9.8290896833896399e-02  8.2518341583667873e-02  1.0230286001410048e-01  8.3130668404101521e-02  6.4269280063927306e-02  6.2754087467220818e-02  7.3188900659897929e-02  5.1555778778216717e-02  5.5098211169952359e-02  4.0767751559223429e-02  1.1489249505101597e-01  7.5092009540796339e-02  5.1123070808978231e-02  1.1748321879970179e-01  4.0388184253884768e-02  2.7856476311649284e-02  1.7908932497478991e-02  2.1871633207245559e-02  5.0367791185558744e-02  3.8441163590366458e-02  5.5971832322429027e-02  4.8079901234039740e-02  1.4734363784056275e-02  6.8434687652199663e-02  3.2379597283976054e-02  3.8458354313045479e-02  3.1226163906557566e-02  3.0789656553408030e-02  1.4910355934649547e-02  1.2952092933060004e-02  3.4693298461011074e-02  1.7726693193560725e-02  4.8826020453520080e-02  2.5682406741783965e-02  2.9015586247215831e-02  2.0957150596602324e-02  2.8417028290795465e-02  1.0114152183652497e-02  1.1426941011211957e-01  4.4700301390792570e-02  1.6450544838811830e-02  1.8070849104540231e-02  1.1645802719585770e-02  2.9042954445617355e-02  1.8438474758702809e-02  2.6243146723977900e-02  5.0614971493283527e-02  2.8485247146607006e-02  2.2277900279410331e-02  7.5113688901546653e-03  1.1158991281027162e-02  1.7400759482439656e-02  2.3638016303563863e-02  -8.9769757475322443e-03  5.6194683196886780e-02  1.8810163179935727e-02  3.7292354291974625e-02  7.2538338385628037e-03  1.2309074567621286e-03  4.5638848870804154e-02  2.5827743867048177e-02  1.4594602861468162e-02  6.2074073578864278e-03  7.6501214932001155e-03  4.8332117767054185e-02  2.6104752289822151e-02  1.2197602167243736e-01  2.8637690269215574e-02  3.4082509102822602e-02  1.1525817650244456e-02  5.3808851567646847e-03  3.6569194648302557e-02  1.1315828797660518e-01  2.8883099880904401e-03  4.1968421541512722e-02  1.5940532771530066e-02  4.5139591903115832e-02  1.2312514855146996e-01  1.7225202376992699e-03  -1.4291982069855295e-02  1.1170580505652460e-01  9.3919524575718186e-02  9.1556387715073934e-02  -1.3429463274111741e-02  -1.0476879357670558e-02  4.1955036360300207e-04  -1.7780352814580253e-02  -8.2617360943905063e-03  -2.1302203443618759e-02  -1.6905818948404115e-02  -5.5626359766072619e-03  -2.7258231948291047e-03  1.8956791932372125e-02  3.9850341156612472e-03  -1.8924263913118574e-02  -4.6510222686844908e-03  -2.6429873044357975e-02  -1.3296255512898437e-02  -7.5724752649259566e-03  9.9399227213978585e-03  3.4175495754148438e-02  -2.2446812494560864e-02  1.1168840916725558e-02  -1.7807391936369647e-02  5.3818868187318746e-03  -1.1539044896610427e-02  9.8977387651745900e-03  -1.0248131945198906e-02  -1.1528880620765352e-02  -1.3716359714100599e-02  -1.4384761060160090e-02  -2.4635722224753739e-02  -1.5928215485442286e-02  -1.9585251685183262e-02  9.2778408237175428e-03  -7.6043069036494486e-03  -1.2445165163814791e-02  -2.3160564036261096e-02  -1.5666638181896352e-02  1.0326700692733032e-02  -1.0604594628742548e-02  -3.6574850457540939e-03  -5.6391210461166370e-03  1.0686528411835641e-01  -1.0320956697714257e-02  -1.5169202445799558e-02  -2.7950381336344214e-03  4.2651609409562953e-02  1.0532745441426102e-02  1.3718730831101832e-03  1.1219364480882711e-01  1.2404253343823221e-01  1.2894590643061199e-01  -2.5494261207414225e-02  5.9638530999932444e-03  -2.9657769782917395e-02  7.7828069223031624e-03  -2.6777101756218981e-02  -1.8253620669344734e-02  1.2655737798025737e-01  4.5684393641472936e-03  4.5806194667891657e-03  -1.7641020002310243e-02  1.2364868643532254e-01  7.8505925041403492e-03  9.6319212922372759e-03  -9.2984247191693990e-03  2.8356320016687396e-03  5.8739475791813713e-03  4.0598118996581702e-02  -3.0321685297992566e-02  9.5119301726234590e-03  1.1727612989322972e-01  3.9502289996040676e-02  -2.1595834090150808e-02  -2.0928415302577330e-02  3.1555343868049687e-02  -8.1419573672732986e-03  6.7998374052120857e-03  7.0346571922090345e-02  6.2736675242434240e-03  -1.1570913689883427e-02  1.3438003319639204e-03  2.3692764886367830e-03  1.0969506052594276e-01  1.9289685827986729e-02  -2.2580257173247440e-02  -3.1942654080507403e-03  4.5684396394880769e-02  2.9583155234599052e-02  6.8148435871654020e-02  9.3423507345665405e-03  -3.9154662364526589e-03  4.0953881176471916e-03  7.0112935295081639e-03  1.9336275246003284e-02  -1.1453149946321155e-03  2.6017476434311296e-02  2.9450610063141546e-02  4.6903196439403695e-02  5.4766633017182077e-02  2.9417501956428702e-02  -2.8146094566825926e-02  -4.0133058745723338e-03  6.9798513174722798e-03  3.1331743317773830e-02  1.0795278889215087e-02  -4.7999976204690462e-03  4.7065923758060527e-02  3.0442294885742519e-02  5.1629091479798161e-02  4.1224152020074942e-02  1.1050384751760445e-02  3.0953017511416672e-02  -2.1777510723086025e-02  2.1641457702371716e-02  9.9898653886099850e-02  2.5811926135797376e-02  2.8993670646885430e-02  4.7122887672805730e-02  -2.0988680492096696e-02  4.6492632058724129e-02  1.2607540103047077e-01  4.2867347439874443e-02  5.9599956862672315e-03  5.6671660987676870e-02  5.3290765049496938e-02  3.9777391912823243e-02  -1.6428110229508343e-03  3.4574494499979118e-02  1.3369290789985232e-03  3.4879324523113417e-02  -9.6682496747598698e-02  -9.4284689835916743e-02  -9.4874208244411978e-02  -9.5373136372659817e-02  -9.1612986581157935e-02  -9.2588572888305382e-02  -9.3234888863518439e-02  -9.2165327374893913e-02  -8.7703150197745688e-02  -8.4254065743759071e-02  -8.6923545272501873e-02  -8.6396105648054736e-02  -8.3757928480440905e-02  -9.4433921636241147e-02  -8.0386192728765599e-02  -5.3025003402828841e-02  -4.1652665922273173e-02  -4.0433783920585255e-02  -8.2183347783985297e-02  -4.5651822507201387e-02  -4.6436735382928522e-02  -8.8855144508262679e-02  -8.1919233599939592e-02  -7.4489117198050361e-02  -5.2776304752551989e-02  -7.0732674388027078e-02  -4.7735896330290815e-02  -7.8923598256759042e-02  -6.1410690908268679e-02  -8.5734462350604237e-02  -7.9768891634279623e-02  -7.5339828878339662e-02  -4.9885960646219488e-02  -6.2309994899798438e-02  -6.9852819542330205e-02  -5.6198791279537558e-02  -6.0393389259468098e-02  -2.9214441254553084e-02  -4.2976861325144167e-02  -3.6442512996160352e-02  -8.0024733432769321e-02  -5.4467862886726413e-02  -6.7521944165942455e-02  -7.1801872627877392e-02  -7.0243410895468331e-02  -1.9616558533667255e-02  -1.9465170530397802e-02  -7.2949779001492882e-02  -7.6865639695381904e-02  -5.8440894582439971e-02  -4.5351227907854764e-02  -4.2952578785367929e-02  -4.7853770067391665e-02  -4.2091170708584959e-02  -4.6321784397376241e-02  -4.6891506043284147e-02  -4.0949801111468308e-02  -3.7255227502589576e-02  -3.1183606066688834e-02  -2.9219341969388139e-02  -7.2635269820890691e-02  -7.6236768048648915e-02  -7.6964517183002235e-02  -7.8802251090440131e-02  -7.9984685518747448e-02  -7.8516036987330035e-02  -7.5371081486486885e-02  -7.8981493737369610e-02  -7.8417013351283774e-02  -8.1656299384403011e-02  -7.5713848060478817e-02  -9.3082246596867174e-02  -1.0494818141870911e-01  -1.0675962726298999e-01  -1.1863904771333159e-01  -1.2087284136036222e-01  -1.1639565728235576e-01  -1.3100131320770295e-01  -1.3215715709906045e-01  -1.3845709903965722e-01  -1.3961775798730119e-01  -1.3403899109613834e-01  -1.3776529108258981e-01  -1.3192343176803598e-01  -1.3784651108231591e-01  -1.3141866352983805e-01  -1.2505887482000694e-01  -1.1855238385448710e-01  -1.1931336587934915e-01  -1.1205865904405236e-01  -1.1545679261453184e-01  -1.0357858862650746e-01  -1.0470657792502584e-01  -9.4848959025148338e-02  -1.3563032491928687e-01  -1.3615032379217709e-01  -9.4801320754086899e-02  -8.7777052379553300e-02  -9.8100028154525981e-02  -1.3228000898281522e-01  -7.9239320988661807e-02  -1.2467811885771976e-01  -1.0926581757616088e-01  -7.2664015255296435e-02  -8.0527770369693358e-02  -6.9023072127998394e-02  -7.6924377354570000e-02  -6.8434689160080497e-02  -7.6866710993946541e-02  -7.0827971202523432e-02  -7.9495378540243758e-02  -7.4798204532257814e-02  -8.4429381011783378e-02  -8.1309605237298882e-02  -9.2682916410585500e-02  -8.9354336882227423e-02  -1.0175720488035889e-01  -9.7806949319257874e-02  -1.1212860810495338e-01  -1.0615104366149719e-01  -1.2157837907418857e-01  -1.1253530827810779e-01  -1.2805748962325111e-01  -1.3004417458132145e-01  -1.3679457055697311e-01  -1.3035935537373625e-01  -1.3749984017029832e-01  -1.4007485193179370e-01  -1.3924477505781563e-01  -1.3974697095644326e-01  -1.2607480186540851e-01  -1.3697477233741778e-01  -1.3714773162190197e-01  -1.2910075302651569e-01  -1.1288713026639376e-01  -1.0636057822907105e-01  -1.3114841796251203e-01  -1.3262748130465582e-01  -1.3161649524774044e-01  -1.2860675937054677e-01  -1.2454974233091888e-01  -1.2786684078929020e-01  -1.2346615293921470e-01  -1.2182392181375823e-01  -1.2135168513702095e-01  -1.1441358024547196e-01  -1.1445226284344168e-01  -1.1830558962989768e-01  -1.1673807899977122e-01  -1.1408336825027010e-01  -1.1717791808105084e-01  -1.1207801041284300e-01  -1.1682227034694666e-01  -1.1625516159903762e-01  -1.2025030826571875e-01  -1.1352388512812313e-01  -1.2217687505622907e-01  -1.2153978256354674e-01  -1.2736759910331918e-01  -1.2231853199669172e-01  -1.3067235882036626e-01  -1.2955454216064763e-01  -1.3541265788784826e-01  -1.3144900112504668e-01  -1.3787467936587872e-01  -1.3606398179252965e-01  -1.3958008406321967e-01  -1.3608844662607222e-01  -1.3725477076499124e-01  -1.3643710801251674e-01  -1.2876446633029159e-01  -1.3278372440036354e-01  -1.2959541707344657e-01  -1.2354754505986354e-01  -1.1969906437272053e-01  -1.2648168475947633e-01  -1.1716928630311342e-01  -1.2198591665413888e-01  -1.1022087936858392e-01  -1.0702713633005403e-01  -1.1036915469627540e-01  -1.0869228905281716e-01  -1.2298334587176177e-01  -1.1199796636017391e-01  -1.0141705472272902e-01  -9.7149725872105505e-02  -4.9561985220676029e-02  -9.6489050828539993e-02  -1.2885771294856149e-01  -1.1442351013627068e-01  -1.1622192879824114e-01  -1.1280737214005604e-01  -1.0529906128173261e-01  -1.1419471806455807e-01  -9.0064610365496678e-02  -9.2193652095968220e-02  -8.6223622934035835e-02  -9.3285245600904051e-02  -7.9387384413679957e-02  -1.0589377567721517e-01  -1.0131790445404210e-01  -1.1048567729260327e-01  -8.6731017286544809e-02  -6.5830121560812138e-02  -1.0220727575774585e-01  -1.0011940941275073e-01  -1.1300493277927569e-01  -1.3180578743430971e-01  -1.2725239574568215e-01  -1.2726950528414563e-01  -1.2109877837231410e-01  -1.2339035014228361e-01  -1.1784579910704331e-01  -1.1815091965002854e-01  -1.1936417180604843e-01  -1.1768811380145369e-01  -1.1446587827866324e-01  -1.1768578632917662e-01  -1.1327508894476773e-01  -1.1575824097405990e-01  -1.1625412672129595e-01  -1.1933048357585901e-01  -1.1241135038353120e-01  -1.1874315983613501e-01  -1.2032829242039512e-01  -1.2470962321342359e-01  -1.1820111760577455e-01  -1.2661337830484343e-01  -1.2722300828747429e-01  -1.3284818213703467e-01  -1.2758457398329262e-01  -1.3537754441339087e-01  -1.3538370289819518e-01  -1.3939439758501168e-01  -1.3487454153822043e-01  -1.3899476665778021e-01  -1.3901760667189600e-01  -1.3753562922731780e-01  -1.3444479718614050e-01  -1.3124783216127128e-01  -1.3217251402459151e-01  -1.2665233232271289e-01  -1.2083756661787341e-01  -1.1627896864815040e-01  -1.2337978253760004e-01  -1.1816819644800237e-01  -1.1548376374320678e-01  -1.1471479261762740e-01  -1.0910715841944500e-01  -1.0743311090739442e-01  -1.0482951219257219e-01  -1.0570808175564006e-01  -9.8247257704316832e-02  -9.4243132235513408e-02  -9.4527089850129392e-02  -8.8701119185218696e-02  -1.0508035845150629e-01  -1.0198167456765951e-01  -1.1235096929054625e-01  -9.8547835830086500e-02  -8.9768299618398217e-02  -8.7862593686902746e-02  -1.1695044063164353e-01  -8.9729654565512768e-02  -9.8823324607419938e-02  -8.3534040133031312e-02  -1.0150502116557401e-01  -9.8167409141546105e-02  -8.8265562634502845e-02  -1.0706746383487711e-01  -8.3315722188445088e-02  -7.7260879191698190e-02  -8.1096824759398445e-02  -7.9263096386996065e-02  -7.8754598919069954e-02  -1.0727256399589635e-01  -8.9088087215045367e-02  -9.5486113536440098e-02  -1.0202878107099142e-01  -1.0624417139973999e-01  -9.82189938925