<?xml version="1.0"?>
<VTKFile type="UnstructuredGrid"  version="0.1"  >
<UnstructuredGrid>
<Piece  NumberOfPoints="1277" NumberOfCells="2456">
<Points>
<DataArray  type="Float64"  NumberOfComponents="3"  format="ascii">0 0 0  0 1 0  1 1 0  1 0 0  1.1 -0.1 0  -0.1 -0.1 0  1.1 1.1 0  -0.1 1.1 0  0.5076939745860023 0.5044379791450192 0  0.6355268389970338 0.7174100280477961 0  0 0.9499999999997918 0  0 0.8999999999995836 0  0 0.8499999999996529 0  0 0.7999999999999998 0  0 0.7500000000003466 0  0 0.7000000000006934 0  0 0.6500000000010401 0  0 0.6000000000013869 0  0 0.5500000000017335 0  0 0.5000000000020587 0  0 0.4500000000018723 0  0 0.4000000000016644 0  0 0.3500000000014564 0  0 0.3000000000012483 0  0 0.2500000000010403 0  0 0.2000000000008322 0  0 0.1500000000006241 0  0 0.100000000000416 0  0 0.05000000000020799 0  0.04999999999989965 0 0  0.09999999999981467 0 0  0.1499999999997036 0 0  0.1999999999995579 0 0  0.2499999999994121 0 0  0.2999999999992664 0 0  0.3499999999991206 0 0  0.3999999999989749 0 0  0.4499999999988292 0 0  0.4999999999986943 0 0  0.5499999999988151 0 0  0.5999999999989468 0 0  0.6499999999990784 0 0  0.69999999999921 0 0  0.7499999999993417 0 0  0.7999999999994734 0 0  0.8499999999996051 0 0  0.8999999999997368 0 0  0.9499999999998684 0 0  1 0.04999999999989965 0  1 0.09999999999981467 0  1 0.1499999999997036 0  1 0.1999999999995579 0  1 0.2499999999994121 0  1 0.2999999999992664 0  1 0.3499999999991206 0  1 0.3999999999989749 0  1 0.4499999999988292 0  1 0.4999999999986943 0  1 0.5499999999988151 0  1 0.5999999999989468 0  1 0.6499999999990784 0  1 0.69999999999921 0  1 0.7499999999993417 0  1 0.7999999999994734 0  1 0.8499999999996051 0  1 0.8999999999997368 0  1 0.9499999999998684 0  0.9499999999997918 1 0  0.8999999999995836 1 0  0.8499999999996529 1 0  0.7999999999999998 1 0  0.7500000000003466 1 0  0.7000000000006934 1 0  0.6500000000010401 1 0  0.6000000000013869 1 0  0.5500000000017335 1 0  0.5000000000020587 1 0  0.4500000000018723 1 0  0.4000000000016644 1 0  0.3500000000014564 1 0  0.3000000000012483 1 0  0.2500000000010403 1 0  0.2000000000008322 1 0  0.1500000000006241 1 0  0.100000000000416 1 0  0.05000000000020799 1 0  -0.1 1.05000000000004 0  -0.1 1.000000000000079 0  -0.1 0.9500000000001624 0  -0.1 0.9000000000003032 0  -0.1 0.850000000000444 0  -0.1 0.8000000000005848 0  -0.1 0.7500000000007256 0  -0.1 0.7000000000008665 0  -0.1 0.6500000000010508 0  -0.1 0.6000000000012352 0  -0.1 0.5500000000014196 0  -0.1 0.500000000001539 0  -0.1 0.4500000000014195 0  -0.1 0.4000000000013 0  -0.1 0.3500000000011588 0  -0.1 0.3000000000010178 0  -0.1 0.2500000000008986 0  -0.1 0.2000000000007579 0  -0.1 0.1500000000006174 0  -0.1 0.1000000000005272 0  -0.1 0.05000000000040083 0  -0.1 2.671196597248127e-13 0  -0.1 -0.0499999999998666 0  -0.0500000000000906 -0.1 0  -1.730560139634463e-13 -0.1 0  0.04999999999975802 -0.1 0  0.09999999999961506 -0.1 0  0.1499999999994613 -0.1 0  0.199999999999302 -0.1 0  0.2499999999991446 -0.1 0  0.2999999999990088 -0.1 0  0.3499999999988296 -0.1 0  0.3999999999986936 -0.1 0  0.4499999999985143 -0.1 0  0.4999999999984002 -0.1 0  0.5499999999985247 -0.1 0  0.5999999999986493 -0.1 0  0.6499999999987955 -0.1 0  0.6999999999989417 -0.1 0  0.7499999999990659 -0.1 0  0.7999999999992116 -0.1 0  0.8499999999993573 -0.1 0  0.8999999999994526 -0.1 0  0.949999999999584 -0.1 0  0.9999999999997226 -0.1 0  1.049999999999861 -0.1 0  1.1 -0.0500000000000906 0  1.1 -1.730560139634463e-13 0  1.1 0.04999999999975802 0  1.1 0.09999999999961506 0  1.1 0.1499999999994613 0  1.1 0.199999999999302 0  1.1 0.2499999999991446 0  1.1 0.2999999999990088 0  1.1 0.3499999999988296 0  1.1 0.3999999999986936 0  1.1 0.4499999999985143 0  1.1 0.4999999999984002 0  1.1 0.5499999999985247 0  1.1 0.5999999999986493 0  1.1 0.6499999999987955 0  1.1 0.6999999999989417 0  1.1 0.7499999999990659 0  1.1 0.7999999999992116 0  1.1 0.8499999999993573 0  1.1 0.8999999999994526 0  1.1 0.949999999999584 0  1.1 0.9999999999997226 0  1.1 1.049999999999861 0  1.05000000000004 1.1 0  1.000000000000079 1.1 0  0.9500000000001624 1.1 0  0.9000000000003032 1.1 0  0.850000000000444 1.1 0  0.8000000000005848 1.1 0  0.7500000000007256 1.1 0  0.7000000000008665 1.1 0  0.6500000000010508 1.1 0  0.6000000000012352 1.1 0  0.5500000000014196 1.1 0  0.500000000001539 1.1 0  0.4500000000014195 1.1 0  0.4000000000013 1.1 0  0.3500000000011588 1.1 0  0.3000000000010178 1.1 0  0.2500000000008986 1.1 0  0.2000000000007579 1.1 0  0.1500000000006174 1.1 0  0.1000000000005272 1.1 0  0.05000000000040083 1.1 0  2.671196597248127e-13 1.1 0  -0.0499999999998666 1.1 0  0.6616406058969643 0.7108299923572406 0  0.6863810480142685 0.7022225978593463 0  0.7093662501913178 0.6910107167896696 0  0.7299237204736069 0.6769249692396713 0  0.7482194924802399 0.6604346555191705 0  0.763676008461214 0.6412554104401523 0  0.7764691394972638 0.6200323836014902 0  0.7866284471348165 0.5972047908081164 0  0.7944736510311426 0.5732382844168028 0  0.8000733839920143 0.5484661119492524 0  0.8033671482782957 0.5234761904492556 0  0.8045886217789193 0.498321740782755 0  0.803628019341691 0.4732891088313462 0  0.8003364832149761 0.4485887769228277 0  0.7946773134650472 0.4247276448367475 0  0.7870256888167315 0.4018601042796692 0  0.7768876599345065 0.3803926178314883 0  0.7643698345434421 0.3606357193195596 0  0.7496699521702345 0.3427335578676266 0  0.7326635863261645 0.3268978027280369 0  0.713335928120765 0.3125177177823184 0  0.6910530159333561 0.3005745753612949 0  0.6661194995018315 0.2910075439505837 0  0.6394840189428092 0.2842374437147462 0  0.6114513842301689 0.2797432902042022 0  0.5826715664926052 0.2768054365025818 0  0.5526748578405609 0.2750903414203011 0  0.5226355864497723 0.2743109785888788 0  0.4928109084122814 0.2738920698198427 0  0.4629231029469123 0.273595864347521 0  0.4332997293819325 0.2735497023416273 0  0.4039538167099831 0.2745134475193591 0  0.3766666244967509 0.2770382922620872 0  0.3515608236887605 0.2815896157345125 0  0.3280037860685887 0.2879551481282623 0  0.3073795300369518 0.2960912244416875 0  0.288789982679982 0.3062134987670271 0  0.2720699795177506 0.3183512634221511 0  0.2571714820249585 0.3325616286070905 0  0.244015400891465 0.3489535030180096 0  0.2325278551138823 0.367312956623171 0  0.2220649252765728 0.3884445824796421 0  0.2128886220350128 0.4121107297594527 0  0.2056356248674355 0.438001436801781 0  0.2007967030753178 0.465317229557803 0  0.1983016334542398 0.4928893631006639 0  0.1983727002948373 0.5212589682630409 0  0.2023841286480514 0.5490032007645569 0  0.2092040582200946 0.5759915424605955 0  0.2190870316226743 0.6016870892075968 0  0.2313640694316511 0.6242978881217311 0  0.2449806414325642 0.644163511670392 0  0.2593791358985256 0.661165750640057 0  0.2747303599067479 0.6759392965443615 0  0.2915054946424021 0.6887391848140393 0  0.3101251843801956 0.6998276612743688 0  0.3308364022052311 0.7090212182497438 0  0.3535272722017807 0.716165116066221 0  0.3781952528303296 0.7213147450337161 0  0.4051438280484948 0.7242810939086585 0  0.4331023287255162 0.7262147250482643 0  0.461980768764809 0.7269336654489673 0  0.4912676679494997 0.7269719544802014 0  0.5207909460159897 0.7267271869936553 0  0.5502964192600874 0.726304784365387 0  0.5799075229490559 0.725558050256105 0  0.6084388686314984 0.7223598690331305 0  0.2666363804215572 0.6313632511700176 0  0.2462488703102442 0.3973914416928108 0  0.7492415271117021 0.6224248493838215 0  0.7787092580443452 0.533859095384059 0  0.6403360117251583 0.6964299692648728 0  0.619027965359588 0.2989348392003038 0  0.7225703922185154 0.3481292952051415 0  0.512894424627063 0.2911834424048564 0  0.2850093652619787 0.3468018169418282 0  0.3336765613795022 0.3119495766466855 0  0.4327132230513268 0.2981748182100016 0  0.3152036564183762 0.6732309038477097 0  0.376446695608337 0.6974626239814266 0  0.4537261497378703 0.7054538736359032 0  0.5366229838437587 0.7077663242213493 0  0.7669560258542616 0.4205439273626521 0  0.221903946730684 0.5528360751835014 0  0.2211947076195485 0.46385220637159 0  0.706308378597944 0.6680848213837477 0  0.3782147366171144 0.3003049294685199 0  0.7769399827768475 0.4659704596065712 0  0.5909479537717958 0.7050650320915638 0  0.7680655158871427 0.5775648327548843 0  0.7480953315506518 0.3814496346333807 0  0.6870348867767578 0.3207378653940768 0  0.5708629973482978 0.2911867856694439 0  0.2401653597486803 0.5968081691191282 0  0.2136462147663885 0.5062254263995533 0  0.4818496931278606 0.7067852101534173 0  0.4749404458358069 0.684777146424666 0  0.4463919647599146 0.6829772475396009 0  0.467868553205903 0.6617589814143824 0  0.4372559481173218 0.6593937810816876 0  0.454983347610696 0.6407467491470465 0  0.4815004665337063 0.6356707081723327 0  0.4287789015372566 0.6340650691831441 0  0.4522545716557699 0.6075470213610046 0  0.4107516472991064 0.6049336203908372 0  0.501707484125298 0.6005214989207713 0  0.542511846595585 0.6291293235413474 0  0.5497864705792599 0.582156432528442 0  0.5849824095179879 0.6157909242411874 0  0.5967694253886675 0.5690522724770539 0  0.6304061117865921 0.6020718413037214 0  0.6435258697398809 0.5551864528215109 0  0.6786917314405604 0.5834784023421135 0  0.6920218888168622 0.5471437757205175 0  0.6572074888561512 0.519970177347206 0  0.6988611502321788 0.5167906418423938 0  0.676991856068157 0.4867628275983072 0  0.627981830630685 0.4947511601366619 0  0.6421138609875946 0.4593410752293367 0  0.6901804506337538 0.4472628098345867 0  0.6605709056487309 0.420733608089457 0  0.6114689136261495 0.4308795147564681 0  0.6263826449880625 0.3973594862483134 0  0.5808181380787293 0.4029037086083477 0  0.5994065043058719 0.3686255309819647 0  0.5486156310342841 0.369162495575013 0  0.5352974941158151 0.4056603405715639 0  0.5011584004826511 0.3693095101115431 0  0.4879731671096129 0.4088483415243711 0  0.4528085655600694 0.3705908364684034 0  0.4407447169653372 0.4103399994629308 0  0.663438944256893 0.61
[...]
<PointData  Scalars="u"> 
<DataArray  type="Float64"  Name="u"  format="ascii">-2.6080835459782948e-18  -2.7184716994926838e-18  -2.6275046403447892e-17  5.1869949258451522e-20  4.7921719446649134e-20  2.4505259797385627e-19  -1.7230576920124308e-19  2.7165446094515778e-19  1.3197702751463858e-01  -6.3166416717753693e-02  -9.8399578842313901e-18  -4.2485777899507565e-17  1.8473333288993661e-17  -6.5968263036841849e-18  -3.5056414588725501e-17  -2.2040485327992675e-17  -2.1459682331157660e-17  1.0590819064303892e-16  -8.0085362413207750e-18  -3.4480044573672283e-17  1.9369174572048436e-17  -2.8930518075424519e-17  -4.2396934972381147e-17  4.7387684892002972e-17  1.1368467836334454e-17  -2.2700808997924885e-17  3.9899617505666187e-18  -4.4413298662325427e-17  3.1743648205060922e-17  -2.3026344578716605e-17  -2.1196682689975598e-17  -2.0780557022505456e-17  -5.5285674526568465e-17  -4.7225723419578530e-18  -2.6693978620402927e-17  5.7302604604007246e-17  -2.8378639463973480e-17  -5.7127182342789851e-17  5.5607101954734902e-17  -9.1823648097703233e-17  -1.2232048711060903e-16  -9.7907206522802530e-17  2.4970438401662847e-19  8.1598638085612676e-18  -6.6835636736028348e-17  -2.2365422765650529e-17  -2.0331768476137903e-17  1.2619415618141419e-18  2.1064277569628377e-17  3.7967159051960631e-17  3.3456175747438224e-18  -1.6515236232922599e-16  1.7643141570437571e-16  1.9351220093660647e-17  -1.6315554952271759e-16  -1.6077495762256776e-17  1.6376621420119727e-16  -1.2865598847010457e-16  -4.1626592496219212e-16  -5.5766691525290117e-17  1.4677111556807258e-16  1.1918566626613451e-16  -2.8193108686774317e-17  1.6283706390404036e-16  2.0819974859816089e-17  1.3339617856387168e-17  -8.1236333928934814e-17  -8.0863367263194141e-18  -3.0953855550901234e-17  -6.0199118597484032e-17  1.3390973524986029e-16  3.7191720687132153e-18  -1.1499250752801748e-17  2.2728756596414863e-17  -2.1751963051300231e-16  1.0677389223007774e-16  2.2977636075226434e-16  -9.0110625313747778e-17  7.5406849258294021e-17  3.4877608828712761e-16  3.1009076157324112e-16  -1.8375435966817888e-16  7.4082837759481713e-17  -7.6027831665599343e-18  6.0863485210117261e-17  9.0034184497511939e-17  -1.1720336134131892e-19  3.0184271939922622e-19  -3.3749358047621616e-18  -4.4266322230327977e-18  1.1282856530549867e-18  -2.8995709875340836e-19  -4.8519511883357996e-18  -6.9652069207255836e-18  3.2332368391279194e-18  1.2375643357808936e-17  1.3754047412501062e-18  -4.6220458813326767e-18  -2.0962536168495628e-19  -2.7867475741713130e-18  -3.1616890477254630e-18  1.9538429570350053e-18  2.5508508061709881e-18  -1.1419262015985072e-18  -2.6517567409659714e-18  -1.9077719445071291e-18  4.1404579825527531e-19  1.7331421386840183e-18  -8.3242615362610215e-19  2.1269285001790704e-19  -6.6234067325289886e-19  -2.5214579811241067e-18  -4.0022789888034438e-18  -4.7643351792726744e-18  -5.5985492287523121e-18  -3.9720801282313011e-18  1.4084532737049726e-18  4.8693022286072802e-18  -4.2794998193315066e-18  -3.8934885859432344e-18  -7.0960732131820522e-19  -1.0390381071445597e-17  -1.8821001950963378e-17  -1.3321487227597997e-17  1.6508738225130184e-18  1.8871628605780585e-18  -7.5919140181111091e-18  -5.0629199296569069e-18  -1.6831082383806412e-18  -2.0727863940232959e-19  2.2672180520980864e-19  -6.4246315855156631e-20  -1.2536809286061340e-19  4.0265467299556381e-19  -3.6949720408339087e-19  -1.0934249856331059e-18  -1.6754099630314095e-18  -9.4531543816927737e-19  3.9056616792176886e-18  -4.8823953989148216e-19  -5.9948124099743129e-18  -3.8516060832813428e-18  -1.5639979699492256e-18  -1.9578954216593996e-18  -6.1675320521815260e-18  -4.9206270414051401e-18  4.5577688473485256e-18  6.0492205219121554e-19  -4.2858999045316623e-18  3.9355986755630812e-19  2.6115076019521859e-18  1.6183917129887461e-18  -1.0649155101427134e-18  -4.1715701584715973e-19  2.3522129408681137e-19  6.6538994091521781e-20  5.2837713325920411e-19  -1.1946314944268046e-18  -1.8763842708139161e-18  -6.1799784470651945e-18  -4.8948738825635894e-18  -9.2648608602867052e-19  8.2754879409339273e-19  3.2795937484942554e-18  2.0641640042201446e-19  -2.2826013287015926e-19  1.6727120589151583e-18  3.6923621311006030e-19  -3.4414391767952092e-18  2.4095659394427235e-18  6.1829688645698973e-18  -3.7944018028323521e-18  -2.2681563459345412e-18  -1.9669044163420475e-18  -1.1341699113062406e-18  1.7987910361730883e-18  1.0059560407733923e-18  -5.9238248045305656e-19  -6.6885650776693020e-02  -6.9773545814441312e-02  -7.1587199998775622e-02  -7.1254071323211474e-02  -6.9321088915439255e-02  -6.5811022844443484e-02  -6.1444152399861902e-02  -5.6780838694537109e-02  -5.2540705290818286e-02  -4.9345929145799924e-02  -4.7397386145098752e-02  -4.6906154582257879e-02  -4.7899866254940443e-02  -5.0107667655469312e-02  -5.3330879342108506e-02  -5.7479928152131363e-02  -6.1728964859696846e-02  -6.5512463894536022e-02  -6.8652288411094969e-02  -7.0613383722904252e-02  -7.1376238484721494e-02  -7.0309897652748976e-02  -6.7644625304162376e-02  -6.3683629582974674e-02  -5.9081044980365358e-02  -5.4756166484796961e-02  -5.1210773875759515e-02  -4.8919567015977966e-02  -4.8492018168746445e-02  -4.9951562507075942e-02  -5.3294397368800581e-02  -5.7947546392882472e-02  -6.2666631669360401e-02  -6.6752090855724242e-02  -7.0427846626634913e-02  -7.2425945662038554e-02  -7.3486427717471020e-02  -7.2933088651802966e-02  -7.1077739436816209e-02  -6.7882467656411774e-02  -6.3879264726089735e-02  -5.9466573164486912e-02  -5.5154625073379829e-02  -5.1555226309748292e-02  -4.9092872074289806e-02  -4.8207367388675613e-02  -4.9482646733538783e-02  -5.1594624297415931e-02  -5.4797660619647748e-02  -5.9211438026457855e-02  -6.3141642792320846e-02  -6.6680782968429803e-02  -6.9457312880618988e-02  -7.1383362013166418e-02  -7.2261467054473366e-02  -7.2003662746011513e-02  -7.0247870880612212e-02  -6.7328232922097067e-02  -6.3425441758435952e-02  -5.8652028473706402e-02  -5.4655813879624482e-02  -5.1457779008920061e-02  -4.9716311045262029e-02  -4.9748263817572427e-02  -5.1896178016195435e-02  -5.5870469826673236e-02  -5.9608690195354572e-02  -2.2685768120808192e-02  -1.7235890282125292e-02  -2.4077812132543001e-02  -1.0609334746380792e-02  -2.2273546708562193e-02  -1.9632758836314906e-02  -2.7167579438395761e-02  -6.8267929629434575e-03  -2.2582929492374067e-02  -2.4398102464100423e-02  -4.6731521975312412e-03  -2.4516720834074676e-02  -1.8283307496575845e-02  -6.4987161084736665e-03  -7.4257713938026782e-03  -1.5076552521286927e-02  -1.8163437780053627e-02  -1.3969175095810339e-02  -2.9582758116304057e-02  -1.7031552223004110e-02  -9.3253593993701586e-03  -1.4498346172385566e-02  -1.4942428326825574e-02  -2.1349331505194240e-02  -2.9029554661664868e-02  -1.4276013797261644e-02  -2.1410219122778962e-02  -1.7285450987894527e-02  -5.1700176097563451e-03  1.8343515324326671e-02  1.6591067871613550e-02  4.2448217120211351e-02  3.9871426499749653e-02  6.2420715593121200e-02  7.0630433974299495e-02  6.3394140402304996e-02  8.9338338715383783e-02  8.0632274450701175e-02  9.8575840980962379e-02  7.4503088820547222e-02  1.0539268445747808e-01  7.5795440673634584e-02  9.9644345390831529e-02  6.8386526766429229e-02  8.4775622859089225e-02  5.2896123586738224e-02  5.8420948725182185e-02  8.5519726005961361e-02  5.9472542116901062e-02  7.4505331574897457e-02  1.0186961202023605e-01  8.9825181841644702e-02  5.7889457797380979e-02  6.5160621669470717e-02  9.3558908996831155e-02  6.9062886031938511e-02  8.9117129372007831e-02  5.8292300331803069e-02  7.2028572794899492e-02  1.0012681569975426e-01  7.6494916481527356e-02  1.0422303177091763e-01  7.4144938900445226e-02  9.9337708873326491e-02  3.9414078546880678e-02  6.5336319880907517e-02  8.2839119289375693e-02  4.2790916929425653e-02  5.7218937130762648e-02  6.5029753373682539e-02  9.6994131488535251e-02  8.1104391427659475e-02  1.0108761818253750e-01  8.1915819645819524e-02  6.2881122028734318e-02  6.1890704615500738e-02  7.2152693892471503e-02  5.0531927636956374e-02  5.3842568084024531e-02  3.9670141957486270e-02  1.1371933507340581e-01  7.3735547025168782e-02  4.9567462469907016e-02  1.1635375089512219e-01  3.9403851820178165e-02  2.7268443458201612e-02  1.7909801937605243e-02  2.1095780809839683e-02  4.8630671916488101e-02  3.7926903825453266e-02  5.4707638735301677e-02  4.7358629824221225e-02  1.5149195732838100e-02  6.6710984419532798e-02  3.2174775281801800e-02  3.7370959669021250e-02  2.9499922597667833e-02  2.8965684898345914e-02  1.2791408233911438e-02  1.2537687679896277e-02  3.2733152920827097e-02  1.5671211865674932e-02  4.7493362426845133e-02  2.3740238012326515e-02  2.7397810392814512e-02  1.8997674105217431e-02  2.8265475034555759e-02  9.6109897182729553e-03  1.1320909984053298e-01  4.3872521501502157e-02  1.5317529283567935e-02  1.6628774382287232e-02  1.0161519102451697e-02  2.8391375149913523e-02  1.8346380951687034e-02  2.6377049610179750e-02  5.0108082422670237e-02  2.8618642258634377e-02  2.1607334248824724e-02  7.2191647446542143e-03  9.6472183560479801e-03  1.5473250111549926e-02  2.3230898050976480e-02  -1.0191191910834660e-02  5.4448142693369124e-02  1.6404561592402570e-02  3.5683397095329236e-02  4.6407905827927174e-03  1.2432916718076437e-03  4.5582892229202546e-02  2.6281426300138779e-02  1.5034794412945829e-02  6.5982966461085686e-03  7.1939906318675868e-03  4.7403546970982979e-02  2.5203196178813062e-02  1.2116922976260620e-01  2.7432952948737408e-02  3.4165464657057013e-02  1.1861636299004757e-02  4.8852752113300434e-03  3.5375066874070139e-02  1.1197456122109961e-01  1.4520835988734743e-03  4.0654345171213455e-02  1.4424765579369631e-02  4.3483522953148286e-02  1.2243044980659107e-01  -5.6614434690055210e-04  -1.7094626965478983e-02  1.1116983581285833e-01  9.2677563085501083e-02  9.0246531666852217e-02  -1.4274950976981671e-02  -9.8191371024665772e-03  -6.5440497411279838e-04  -2.0370848500016914e-02  -7.4378780753975990e-03  -2.4862287241614892e-02  -1.9170043453186691e-02  -7.9687482042974257e-03  -5.4456606842492386e-03  1.6793908999894119e-02  1.4200076789621476e-03  -2.1041455953915017e-02  -3.6090717032369588e-03  -2.9210991899390703e-02  -1.3986329199501626e-02  -6.2654173602602501e-03  8.8012114312167565e-03  3.2738367147782152e-02  -2.5902589915251382e-02  8.8976781729599146e-03  -2.0641548946697046e-02  2.8486071145915602e-03  -1.0120339976826742e-02  1.0766465556551809e-02  -1.1189411926553748e-02  -1.0127399691003316e-02  -1.4035321921739112e-02  -1.3607260173008600e-02  -2.7943337507456579e-02  -1.6640391739925774e-02  -2.2430986536308265e-02  1.0127600559649225e-02  -6.4632282433114835e-03  -1.1571738282682343e-02  -2.5157186154889190e-02  -1.5847733785169658e-02  9.2512468424688805e-03  -1.1752560028187434e-02  -3.4008375034421555e-03  -7.7171186019139477e-03  1.0637747553965909e-01  -8.9612454638398256e-03  -1.8095395962413278e-02  -4.5433001656949093e-03  4.2102894102770502e-02  1.1292881419685121e-02  -9.6834988333629069e-04  1.1148498628345126e-01  1.2306939046641183e-01  1.2794660506438316e-01  -2.8218754381339750e-02  4.2468700018897460e-03  -3.1560088678873333e-02  6.3706096558098805e-03  -2.8758741546164587e-02  -2.0090425193425954e-02  1.2588884427149474e-01  4.8303596339774506e-03  5.1954440407205836e-03  -1.8330064231689803e-02  1.2277562482055929e-01  6.1786507314559973e-03  1.0409838032168748e-02  -8.1693208888215761e-03  7.7451801519284403e-05  6.9015263854658240e-03  3.9341814709676071e-02  -3.1512331266181130e-02  8.3975239715142896e-03  1.1672965852620157e-01  3.8839465850653905e-02  -2.5035646885969102e-02  -1.9430084291632257e-02  3.1798563550652262e-02  -9.9263088793036299e-03  4.9531033069468867e-03  6.9352322125607740e-02  7.0017228330683835e-03  -1.3520535781120852e-02  -1.0972509245144476e-03  2.4785254282115596e-03  1.0850126926528698e-01  1.7994485225212353e-02  -2.5418129301151053e-02  -5.2046886088334817e-03  4.5351056944229626e-02  2.9780431286856417e-02  6.6480185430293506e-02  9.9560944404894491e-03  -5.8684734000023055e-03  2.0508822525165883e-03  4.8951206227957587e-03  1.9416776465060195e-02  -4.1049139621323442e-03  2.4145454180960365e-02  2.9677878904817850e-02  4.6995254200546260e-02  5.3362565611519731e-02  2.9061349570536885e-02  -2.9386730103264817e-02  -5.4752970483721488e-03  6.0199120443617908e-03  2.9824915676018093e-02  1.0766864354345802e-02  -5.4190892801633840e-03  4.6165176865754859e-02  2.9431370299727727e-02  5.1124879138895483e-02  3.9415760806471432e-02  1.0382999385191185e-02  2.9310776512081294e-02  -2.1236555665254592e-02  1.9821125067840579e-02  9.8598439708644819e-02  2.3775163623930354e-02  2.8675940028874958e-02  4.5686421818188050e-02  -1.9567877401613785e-02  4.5370647615410493e-02  1.2508840392335110e-01  4.1158235969981867e-02  5.3144140051611501e-03  5.5157242282761115e-02  5.1639800299631569e-02  3.7990880538001488e-02  -4.4661267068615458e-03  3.4184406195998294e-02  -9.1341008879151843e-04  3.4835495857406473e-02  -9.8770732955870230e-02  -9.7656679641062769e-02  -9.7264619043678349e-02  -9.7615890806606126e-02  -9.2440559913736065e-02  -9.4008348245249646e-02  -9.5336301286257766e-02  -9.5031711926625725e-02  -8.9947884414782311e-02  -8.3498017273418754e-02  -8.8080279501552367e-02  -8.9248388268048789e-02  -8.3298195382649640e-02  -9.6125164867679538e-02  -7.9732083346166868e-02  -5.0733357113159565e-02  -4.0113923891270595e-02  -3.8298644210930821e-02  -8.2273039070966308e-02  -4.6667404012235118e-02  -4.3790207339633735e-02  -8.8865303386603381e-02  -8.0563466401845904e-02  -7.4161777049940536e-02  -5.1507789285470000e-02  -7.0049131071204709e-02  -4.5622688536245064e-02  -7.7164951615882035e-02  -6.0397350167601518e-02  -8.7880919008026581e-02  -8.1140076148501758e-02  -7.6219480999853761e-02  -5.2915135812315849e-02  -6.0619210990453865e-02  -6.9143206925343786e-02  -5.6039474217456586e-02  -6.0993166853834165e-02  -2.8483078569392629e-02  -4.1375872700490313e-02  -3.5560857278076556e-02  -7.8424009327017818e-02  -5.7335129961843902e-02  -6.7493342668915116e-02  -7.1715918083372285e-02  -7.1522511967750058e-02  -2.0616271007586326e-02  -2.0340977436020979e-02  -7.2761435620693718e-02  -7.8049491010081906e-02  -5.8395004223509857e-02  -4.4523260770634822e-02  -4.0887271784218727e-02  -4.9328381630906193e-02  -4.0274340843923104e-02  -4.5278781343810456e-02  -4.9523368589993108e-02  -4.1189835733024274e-02  -3.5216154184361803e-02  -2.9908552439941227e-02  -2.8368948588659969e-02  -7.2566921312819360e-02  -7.6932553916976898e-02  -7.7977218042425703e-02  -8.0518992394969124e-02  -8.1258091257763412e-02  -8.0699245955504983e-02  -7.7950471135811938e-02  -8.0484730035135899e-02  -8.0964194081749929e-02  -8.3646502363641129e-02  -7.5963798472015384e-02  -9.3924610984237517e-02  -1.0604511539287703e-01  -1.0833725860637307e-01  -1.1955573319210137e-01  -1.2195759708102492e-01  -1.1702009643666784e-01  -1.3148233683589974e-01  -1.3268485036687910e-01  -1.3843455752045944e-01  -1.3943053558707824e-01  -1.3427900002917550e-01  -1.3731371408142190e-01  -1.3178711382634845e-01  -1.3715712454640763e-01  -1.3061837364588924e-01  -1.2448861376982964e-01  -1.1741424970926698e-01  -1.1798891300252751e-01  -1.1117599395042659e-01  -1.1519392944250445e-01  -1.0313561291447164e-01  -1.0484011703318277e-01  -9.4941106818883320e-02  -1.3570602936182108e-01  -1.3580540233131533e-01  -9.5146256146583549e-02  -8.8408308415327388e-02  -9.6761406336454289e-02  -1.3217766122068611e-01  -7.9655715334297703e-02  -1.2537039794057159e-01  -1.0973375172388959e-01  -7.3867377573962306e-02  -8.1603068171487700e-02  -7.0750979592186625e-02  -7.8165762729473023e-02  -7.0341511960980832e-02  -7.7941930269468968e-02  -7.2577606204823730e-02  -8.0339557150681667e-02  -7.6115899744821414e-02  -8.5056285850184335e-02  -8.2036083268647669e-02  -9.2901376756575213e-02  -8.9402485541334689e-02  -1.0155371702243284e-01  -9.7185380762929041e-02  -1.1142853651960000e-01  -1.0491751058641176e-01  -1.2041612783494823e-01  -1.1081780706939136e-01  -1.2650390396845410e-01  -1.2918128173917520e-01  -1.3548540819694399e-01  -1.2850329438122368e-01  -1.3577636924164346e-01  -1.3899677043948327e-01  -1.3758801209003285e-01  -1.3880508926756929e-01  -1.2398415243724145e-01  -1.3533765507501092e-01  -1.3624896793432570e-01  -1.2696786909154723e-01  -1.1071416746062185e-01  -1.0415290969616922e-01  -1.2953541981738972e-01  -1.3182537627249494e-01  -1.3163067573102316e-01  -1.2860995558897367e-01  -1.2456758816980891e-01  -1.2724451291686467e-01  -1.2340658850162611e-01  -1.2162320639619356e-01  -1.2158832278588237e-01  -1.1457368245653056e-01  -1.1469858415494145e-01  -1.1915422466598025e-01  -1.1757028077032008e-01  -1.1575931194248931e-01  -1.1878628273754761e-01  -1.1259138319892177e-01  -1.1809444070514953e-01  -1.1858085932158677e-01  -1.2229639927484283e-01  -1.1633769550891401e-01  -1.2457499133813209e-01  -1.2320418633063154e-01  -1.2941251530643780e-01  -1.2473428357812712e-01  -1.3270580797216988e-01  -1.3144976913638221e-01  -1.3721570955186144e-01  -1.3320008066580494e-01  -1.3933935618421314e-01  -1.3781404919827001e-01  -1.4084588697545158e-01  -1.3708328087337368e-01  -1.3793262909942319e-01  -1.3752445976716318e-01  -1.2924560116678507e-01  -1.3313750666144372e-01  -1.3046567428594552e-01  -1.2363840369627795e-01  -1.2039195918831530e-01  -1.2824616284141060e-01  -1.1672066784842684e-01  -1.2286758500378721e-01  -1.1063900170999107e-01  -1.0687092790395010e-01  -1.1034954033857336e-01  -1.0950956273905792e-01  -1.2249841181721742e-01  -1.1332036863438907e-01  -1.0269819026410144e-01  -9.8285896071067635e-02  -5.1788909450774877e-02  -9.8353985948157793e-02  -1.2812917787527386e-01  -1.1437772277387021e-01  -1.1526325695307563e-01  -1.1050598846331301e-01  -1.0530488931815533e-01  -1.1516149065193569e-01  -8.8374386828382889e-02  -9.3783313659579454e-02  -8.6314223924995215e-02  -9.3270930021883622e-02  -7.9811973095666067e-02  -1.0733512632015653e-01  -1.0439944690074683e-01  -1.1219098555872277e-01  -8.4549710996197236e-02  -6.6238963468254045e-02  -1.0222396745706806e-01  -1.0061324898694017e-01  -1.1342059534435855e-01  -1.3196324591684275e-01  -1.2741647748306156e-01  -1.2752065311439106e-01  -1.2159979058011744e-01  -1.2382561501200592e-01  -1.1786963387236010e-01  -1.1820813087000399e-01  -1.2005166259068600e-01  -1.1777976029105286e-01  -1.1537800479188791e-01  -1.1810908028573328e-01  -1.1301231727874374e-01  -1.1557791650503987e-01  -1.1678437449765834e-01  -1.1936448381539269e-01  -1.1194724962983300e-01  -1.1843109384136433e-01  -1.2023432806987527e-01  -1.2432856598674785e-01  -1.1788177042427221e-01  -1.2618547212629869e-01  -1.2647529533321572e-01  -1.3211877559366325e-01  -1.2631980439213283e-01  -1.3409191443318669e-01  -1.3463062725632965e-01  -1.3833307121470470e-01  -1.3312239257881275e-01  -1.3731305490029333e-01  -1.3803518821811792e-01  -1.3590315007893217e-01  -1.3358464431368583e-01  -1.2961559469041514e-01  -1.3003859397370518e-01  -1.2583095683877210e-01  -1.1918025202178645e-01  -1.1551281154393105e-01  -1.2355689033697798e-01  -1.1587361595118133e-01  -1.1542419828479995e-01  -1.1370233296711514e-01  -1.0745977175783480e-01  -1.0581744043068268e-01  -1.0426495039110237e-01  -1.0604883154624521e-01  -9.8637460275230626e-02  -9.5276023488350542e-02  -9.4530147065350498e-02  -8.9477008764180452e-02  -1.0491533227904976e-01  -1.0233832205905916e-01  -1.1273197356196890e-01  -9.9728458554990823e-02  -9.1218055967710765e-02  -8.6644747926018145e-02  -1.1803175576128640e-01  -9.0653362511654262e-02  -9.8267780669815230e-02  -8.5210599473379500e-02  -1.0177151739585509e-01  -9.7923124886870522e-02  -8.9842452210397800e-02  -1.0704781316489828e-01  -8.4186284028470948e-02  -7.7642148853796292e-02  -8.1279514664437405e-02  -7.9065284057477855e-02  -7.8436283361840539e-02  -1.0685074017059669e-01  -8.9218998082284381e-02  -9.7001186693712035e-02  -1.0283924747810151e-01  -1.0728668259740909e-01  -9.86930467