<?xml version="1.0"?>
<VTKFile type="UnstructuredGrid"  version="0.1"  >
<UnstructuredGrid>
<Piece  NumberOfPoints="1277" NumberOfCells="2456">
<Points>
<DataArray  type="Float64"  NumberOfComponents="3"  format="ascii">0 0 0  0 1 0  1 1 0  1 0 0  1.1 -0.1 0  -0.1 -0.1 0  1.1 1.1 0  -0.1 1.1 0  0.5062779566481479 0.5029105454562052 0  0.6249050124322106 0.7333263267726297 0  0 0.9499999999997918 0  0 0.8999999999995836 0  0 0.8499999999996529 0  0 0.7999999999999998 0  0 0.7500000000003466 0  0 0.7000000000006934 0  0 0.6500000000010401 0  0 0.6000000000013869 0  0 0.5500000000017335 0  0 0.5000000000020587 0  0 0.4500000000018723 0  0 0.4000000000016644 0  0 0.3500000000014564 0  0 0.3000000000012483 0  0 0.2500000000010403 0  0 0.2000000000008322 0  0 0.1500000000006241 0  0 0.100000000000416 0  0 0.05000000000020799 0  0.04999999999989965 0 0  0.09999999999981467 0 0  0.1499999999997036 0 0  0.1999999999995579 0 0  0.2499999999994121 0 0  0.2999999999992664 0 0  0.3499999999991206 0 0  0.3999999999989749 0 0  0.4499999999988292 0 0  0.4999999999986943 0 0  0.5499999999988151 0 0  0.5999999999989468 0 0  0.6499999999990784 0 0  0.69999999999921 0 0  0.7499999999993417 0 0  0.7999999999994734 0 0  0.8499999999996051 0 0  0.8999999999997368 0 0  0.9499999999998684 0 0  1 0.04999999999989965 0  1 0.09999999999981467 0  1 0.1499999999997036 0  1 0.1999999999995579 0  1 0.2499999999994121 0  1 0.2999999999992664 0  1 0.3499999999991206 0  1 0.3999999999989749 0  1 0.4499999999988292 0  1 0.4999999999986943 0  1 0.5499999999988151 0  1 0.5999999999989468 0  1 0.6499999999990784 0  1 0.69999999999921 0  1 0.7499999999993417 0  1 0.7999999999994734 0  1 0.8499999999996051 0  1 0.8999999999997368 0  1 0.9499999999998684 0  0.9499999999997918 1 0  0.8999999999995836 1 0  0.8499999999996529 1 0  0.7999999999999998 1 0  0.7500000000003466 1 0  0.7000000000006934 1 0  0.6500000000010401 1 0  0.6000000000013869 1 0  0.5500000000017335 1 0  0.5000000000020587 1 0  0.4500000000018723 1 0  0.4000000000016644 1 0  0.3500000000014564 1 0  0.3000000000012483 1 0  0.2500000000010403 1 0  0.2000000000008322 1 0  0.1500000000006241 1 0  0.100000000000416 1 0  0.05000000000020799 1 0  -0.1 1.05000000000004 0  -0.1 1.000000000000079 0  -0.1 0.9500000000001624 0  -0.1 0.9000000000003032 0  -0.1 0.850000000000444 0  -0.1 0.8000000000005848 0  -0.1 0.7500000000007256 0  -0.1 0.7000000000008665 0  -0.1 0.6500000000010508 0  -0.1 0.6000000000012352 0  -0.1 0.5500000000014196 0  -0.1 0.500000000001539 0  -0.1 0.4500000000014195 0  -0.1 0.4000000000013 0  -0.1 0.3500000000011588 0  -0.1 0.3000000000010178 0  -0.1 0.2500000000008986 0  -0.1 0.2000000000007579 0  -0.1 0.1500000000006174 0  -0.1 0.1000000000005272 0  -0.1 0.05000000000040083 0  -0.1 2.671196597248127e-13 0  -0.1 -0.0499999999998666 0  -0.0500000000000906 -0.1 0  -1.730560139634463e-13 -0.1 0  0.04999999999975802 -0.1 0  0.09999999999961506 -0.1 0  0.1499999999994613 -0.1 0  0.199999999999302 -0.1 0  0.2499999999991446 -0.1 0  0.2999999999990088 -0.1 0  0.3499999999988296 -0.1 0  0.3999999999986936 -0.1 0  0.4499999999985143 -0.1 0  0.4999999999984002 -0.1 0  0.5499999999985247 -0.1 0  0.5999999999986493 -0.1 0  0.6499999999987955 -0.1 0  0.6999999999989417 -0.1 0  0.7499999999990659 -0.1 0  0.7999999999992116 -0.1 0  0.8499999999993573 -0.1 0  0.8999999999994526 -0.1 0  0.949999999999584 -0.1 0  0.9999999999997226 -0.1 0  1.049999999999861 -0.1 0  1.1 -0.0500000000000906 0  1.1 -1.730560139634463e-13 0  1.1 0.04999999999975802 0  1.1 0.09999999999961506 0  1.1 0.1499999999994613 0  1.1 0.199999999999302 0  1.1 0.2499999999991446 0  1.1 0.2999999999990088 0  1.1 0.3499999999988296 0  1.1 0.3999999999986936 0  1.1 0.4499999999985143 0  1.1 0.4999999999984002 0  1.1 0.5499999999985247 0  1.1 0.5999999999986493 0  1.1 0.6499999999987955 0  1.1 0.6999999999989417 0  1.1 0.7499999999990659 0  1.1 0.7999999999992116 0  1.1 0.8499999999993573 0  1.1 0.8999999999994526 0  1.1 0.949999999999584 0  1.1 0.9999999999997226 0  1.1 1.049999999999861 0  1.05000000000004 1.1 0  1.000000000000079 1.1 0  0.9500000000001624 1.1 0  0.9000000000003032 1.1 0  0.850000000000444 1.1 0  0.8000000000005848 1.1 0  0.7500000000007256 1.1 0  0.7000000000008665 1.1 0  0.6500000000010508 1.1 0  0.6000000000012352 1.1 0  0.5500000000014196 1.1 0  0.500000000001539 1.1 0  0.4500000000014195 1.1 0  0.4000000000013 1.1 0  0.3500000000011588 1.1 0  0.3000000000010178 1.1 0  0.2500000000008986 1.1 0  0.2000000000007579 1.1 0  0.1500000000006174 1.1 0  0.1000000000005272 1.1 0  0.05000000000040083 1.1 0  2.671196597248127e-13 1.1 0  -0.0499999999998666 1.1 0  0.6501826979267723 0.7275077827923483 0  0.6745833808858137 0.7185627794093405 0  0.6975047999073619 0.7062031673266815 0  0.7184707926032952 0.690722874324413 0  0.737183238483972 0.6725645816401999 0  0.7516525866834576 0.6509258064422703 0  0.761506567844021 0.62690728899097 0  0.7694583949860461 0.6022528029353255 0  0.7750320432716962 0.5769923229084277 0  0.7782880111218794 0.5513794530932367 0  0.7796153175820247 0.5256337771407842 0  0.7792062318073233 0.4998910500801446 0  0.7769474467808966 0.4742666489455076 0  0.7728826877105527 0.4488875625582032 0  0.7671195020846806 0.4238542058597672 0  0.7594812531531627 0.3993381138727652 0  0.7499799860455548 0.3754784270676056 0  0.7387251922320981 0.3523763385660565 0  0.7255403396462066 0.3303038115481776 0  0.7104097931985182 0.3094596953735934 0  0.6931129705814332 0.2902477867920083 0  0.6738412556891452 0.2729332489058914 0  0.6523404105204289 0.2583400053285759 0  0.6290156037378619 0.2468302959125181 0  0.6038251405133872 0.2403966018798101 0  0.5780039409314839 0.2376161163540466 0  0.5521011032688387 0.2377738292704519 0  0.5263948381645374 0.240349730452247 0  0.5010835552580913 0.2451484366084481 0  0.4761192651889698 0.2512707545199329 0  0.4515290683073487 0.2585704788274634 0  0.427344808323494 0.2669857943999369 0  0.4036830454259654 0.2765873274428532 0  0.3806623098624086 0.2873646772074929 0  0.3582938504088011 0.2993283437778174 0  0.3366147315196723 0.3123672172922711 0  0.3156671463990134 0.3265168132349021 0  0.2955835433447049 0.341849357039734 0  0.2763907166658039 0.3582849048756279 0  0.257988307957893 0.3756289890032208 0  0.2405162855191645 0.393966396152478 0  0.2239712280201688 0.4132443304592168 0  0.208371270398502 0.433416843736638 0  0.1938097044347169 0.4544917010383313 0  0.1816771777805122 0.477191340946577 0  0.1726925809254507 0.5014767152667717 0  0.1712381291483329 0.5274278235916972 0  0.1761673161343453 0.5530924904164877 0  0.1871547492901954 0.5765890607736589 0  0.2032490769761005 0.596863772218426 0  0.2209690446615191 0.6155413534793162 0  0.2400441605093587 0.6326967517218869 0  0.2599997684201771 0.6486754254633418 0  0.2806870585409611 0.6636253223564252 0  0.302259320371898 0.6772608062884213 0  0.3246794068444011 0.6894452028746699 0  0.3478950425043023 0.7000263756022872 0  0.3716224553062678 0.7094250393655737 0  0.395844157762039 0.7176259332682889 0  0.4205408992239822 0.7244020092987267 0  0.4455826143361747 0.7299138929301366 0  0.470885560951132 0.7342930889387794 0  0.4963750425555525 0.7376466119120603 0  0.5220331136913816 0.7397084414568946 0  0.5477902491251967 0.7404190358846723 0  0.5735867284623372 0.7397451444935829 0  0.5993492106171234 0.737441946692742 0  0.2635005984907632 0.6227512848291912 0  0.2495208848186357 0.418787791742529 0  0.7356490853515574 0.6315297899012802 0  0.7572056371283554 0.5367565835974365 0  0.6307199623806614 0.7108633487390795 0  0.6104917317136072 0.2648012495738391 0  0.701162417803711 0.3325017858494394 0  0.51822194327559 0.2630987381945051 0  0.3022943241757386 0.3670227386318176 0  0.3582602625492858 0.3233743425760157 0  0.4495724004279993 0.2873931495324887 0  0.3241662086904172 0.6643846953599523 0  0.3901083135125222 0.6931779810824199 0  0.46220613592065 0.7099569480002573 0  0.5357533549482066 0.719180336085033 0  0.741516380683399 0.4171690036682165 0  0.2012123887820311 0.5551618857910751 0  0.2069032727344033 0.4771935694685494 0  0.6950522345203577 0.6814418926417793 0  0.401436637541176 0.3018046598430981 0  0.7519716393216375 0.4657754098520126 0  0.5844472925368782 0.7179717992989486 0  0.7502136313904937 0.5828025967360956 0  0.7239471446956898 0.3729815994198736 0  0.6698250762291965 0.2965309285033078 0  0.5681264048260763 0.2566492276302662 0  0.2280126591092562 0.5921256506899657 0  0.1914622257296587 0.5139569230740355 0  0.487341915777082 0.7142705202689408 0  0.4799934374078358 0.6898046025140288 0  0.4538145906195683 0.685363149264032 0  0.472178046703243 0.6648788084949027 0  0.4434192660599626 0.6601425196524177 0  0.4588838470167542 0.6422514267326168 0  0.4836047141416976 0.6384311951822912 0  0.4334655386087445 0.6338376887604449 0  0.4546636926675136 0.6082602083900155 0  0.4140084469159012 0.6040400623572281 0  0.5014230227316223 0.6028336488479363 0  0.5401832105289638 0.6344583958950936 0  0.5461307320662127 0.5849862051426755 0  0.5794994425060812 0.6218913157271138 0  0.5896603807478965 0.5722301943505209 0  0.6216931555164541 0.6087231179873968 0  0.6326992639919304 0.5584394518635211 0  0.6663740888548678 0.5898565821401918 0  0.677307187766283 0.5507302817342016 0  0.6443002791523318 0.5204719984344508 0  0.6823815758671137 0.5179230440194229 0  0.661454502172529 0.4845962882186342 0  0.6170984279071197 0.4922727151569515 0  0.6294374134946773 0.4534151518028265 0  0.6725308638848962 0.4414442689341529 0  0.645724566426196 0.4105976308166289 0  0.6018651267732804 0.4211851170745747 0  0.6154060039847946 0.3831161353514477 0  0.5748936051754552 0.3898345853382524 0  0.5920447998235682 0.3496401255715929 0  0.5472736642285533 0.3524599515374437 0  0.5341183188685525 0.3950079880191548 0  0.5051117175033959 0.3570152169502967 0  0.4910185978512796 0.4021992750381372 0  0.4613319694723703 0.3646475280866375 0  0.4469662253091448 0.4085369788600015 0  0.6531113795992171 0
[...]
<PointData  Scalars="u"> 
<DataArray  type="Float64"  Name="u"  format="ascii">-7.0840371276216756e-19  -1.9992747011598709e-18  -2.4849554514959153e-17  -6.4787851738645548e-19  7.3708071389892917e-21  9.5547920006005020e-20  -1.7718243332175550e-19  1.1888999768739127e-19  1.3359738236776925e-01  -6.6736505652622874e-02  2.2569043453836104e-18  -1.7567237498405434e-17  -1.0025577885879682e-17  -1.8742411705673186e-17  -2.2835192032492328e-17  -2.1703131261959116e-17  -4.2469573297936029e-18  3.5135028865253513e-17  5.9172698781675045e-18  -4.3051327617479360e-17  -1.5793502528885447e-18  -8.9558653708558548e-18  1.5241758570015807e-18  2.6734942309844123e-17  2.6870815300669842e-17  1.5284025803066652e-17  6.7865492520632321e-18  -6.8564724733578022e-18  1.6746840936837893e-17  -1.2695990047192061e-17  -1.8394194036453075e-17  -5.8439066020561649e-18  -2.3525202762354982e-17  -1.6556243795542456e-17  -3.5239332899200519e-17  6.4364001340224444e-17  -2.7004027411510221e-17  -5.6174683886466555e-17  4.6381161257429796e-17  -5.9197782690823368e-17  -4.7004042974367594e-17  -6.9297187918849149e-17  -4.4962596704696625e-18  1.1745548865051736e-17  -6.5247301637589851e-17  -1.8582927346558066e-17  -1.1539661766584109e-17  -3.6110101281384779e-18  1.6573167693685428e-17  4.1186935385735782e-17  -3.8587504007974872e-18  -1.6107823736880291e-16  1.8969217309195714e-16  6.2982353029843599e-18  -1.6115495024199106e-16  -2.1093410336850972e-17  1.6506156900076478e-16  -1.2576615857817401e-16  -4.0394021487426082e-16  -3.4064083132209218e-17  1.4569545440745318e-16  1.2103920767167175e-16  -4.8752792913336069e-18  1.8958694898765142e-16  -1.4426100585875513e-18  -4.9112228133919993e-18  -7.8416307394324069e-17  -1.6420544703313785e-18  -4.0928904109176801e-17  -2.7621175688381313e-17  1.3078531973414035e-16  -1.4174197753332576e-17  4.5239267660849354e-18  2.3846139674837051e-17  -2.5545583444071293e-16  1.0748236797431738e-16  2.2078254531804211e-16  -9.5069216446521500e-17  7.4951654535523223e-17  3.4957000098475038e-16  3.2009260657783103e-16  -1.6829547593185145e-16  6.8661316654850097e-17  7.1283060852191562e-18  8.3344157921535817e-17  6.4872542281140802e-17  -1.8874881970856770e-19  2.1625199740326501e-19  -7.4458692701343461e-19  -1.8507789769039277e-18  -1.9874756332068753e-18  -2.2018412645744148e-18  -4.1125242087070863e-18  -4.3405509341050348e-18  6.2866005503527756e-19  4.6863615502941131e-18  8.8282545950031918e-19  -5.0037996554067321e-18  -2.7349805751638176e-18  -1.4995942560985639e-19  7.6382657300399925e-19  1.1591369548766949e-18  4.2436771899811219e-18  2.9890049885159081e-18  -1.0088714831861098e-19  1.0922847723904339e-18  7.5549598794891513e-19  7.3048531188424700e-19  -3.4903158953853766e-19  8.8697448258469059e-20  -1.9369085744961811e-19  -1.3164159241336537e-18  -3.7920447698855129e-18  -2.4019957673531624e-18  -2.0201520270023511e-18  -5.0946539989825055e-18  1.2676911264002045e-18  6.6406150379531608e-18  -3.9522132989915807e-18  -4.6651595157565815e-18  -1.1961436194289802e-19  -4.4401823100231616e-18  -9.3514099532998634e-18  -8.5313295735426723e-18  1.4119315587282394e-18  1.1263347291349046e-18  -7.1971688148391802e-18  -4.3132962341521071e-18  -8.2555353306142722e-19  -4.6041017926228726e-19  -1.2192593595950531e-19  1.3885406637804483e-20  -4.0587083771832645e-21  -2.7191299621506275e-20  -7.3754230473233403e-19  -1.1847079422308823e-18  -2.0381566617524694e-18  -5.6422515344449876e-19  3.7154691698874726e-18  -8.9479986267777379e-19  -6.6199821963569030e-18  -4.0877986178974562e-18  -1.7913399319163554e-18  -1.4132960246420728e-18  -4.0094464573270609e-18  -2.6079693927862323e-18  4.3661602657403116e-18  7.3879038183407085e-20  -3.0918899248723111e-19  1.7471719918079823e-18  2.0230496791068741e-19  -1.0392125956785796e-18  -9.5913857680412120e-19  3.5037716834839557e-21  2.0226602989650205e-19  4.8150755275847560e-20  4.9866880418239449e-19  -8.3717136996364849e-19  -2.8958006887774165e-18  -3.8718608945682246e-18  -4.5888180248298564e-18  -2.5375099587645560e-18  1.0219390272703550e-18  1.9942107787238241e-18  -3.2917828416192616e-18  -1.6178641629525699e-18  8.1491100306123100e-19  -2.4990394583945675e-19  -3.6540764120626978e-18  2.8072060235365931e-18  6.5742673468772205e-18  -2.1967409008265194e-18  -2.6265985516028083e-18  8.1660167593036817e-19  7.0445830551179037e-19  -1.3231404968037026e-19  -2.2003266063257635e-19  -3.6345530399031369e-20  -7.0921926641711985e-02  -7.4124715112548561e-02  -7.6208499039536470e-02  -7.6506227035054455e-02  -7.5232981657978537e-02  -7.1478050116523237e-02  -6.5975181108628364e-02  -6.0932815689102048e-02  -5.6399010314307572e-02  -5.2808212842379118e-02  -5.0338603293714188e-02  -4.9135770303437964e-02  -4.9175238112265533e-02  -5.0191162712792919e-02  -5.2233877259839155e-02  -5.5082748240455115e-02  -5.8356270457365009e-02  -6.1778849906532651e-02  -6.5166345999280548e-02  -6.8124749969031062e-02  -7.0141433207366946e-02  -7.1286567239253432e-02  -7.1202469641453436e-02  -6.9968676778795591e-02  -6.6873510080355289e-02  -6.3320807644851845e-02  -6.0048158130765618e-02  -5.7291406037622339e-02  -5.5132821634632130e-02  -5.3845164010611429e-02  -5.3474003478646503e-02  -5.3924832653847996e-02  -5.4671692431567463e-02  -5.5538586172944077e-02  -5.6579326103873770e-02  -5.6980968366025009e-02  -5.7657743751195478e-02  -5.7598875014893094e-02  -5.7172089199213280e-02  -5.6443076869293993e-02  -5.5571009350778668e-02  -5.4815045314152863e-02  -5.4403530806728398e-02  -5.4667155762998687e-02  -5.5094955105751353e-02  -5.6007806726222673e-02  -5.7099958883303249e-02  -5.8777577362257583e-02  -6.0323266489005142e-02  -6.1130011272891915e-02  -6.1671582218203472e-02  -6.1985258696274172e-02  -6.2141727385135521e-02  -6.2211602609889102e-02  -6.1880631761715828e-02  -6.1052807019315716e-02  -5.9525877658868666e-02  -5.7959918011219136e-02  -5.6471585597031464e-02  -5.4900862400068862e-02  -5.3864437956151624e-02  -5.3432000541285177e-02  -5.3836163489455378e-02  -5.4920635919594771e-02  -5.6923834881676919e-02  -5.9759489413100594e-02  -6.3068193311436385e-02  -1.8854280432007771e-02  -1.2449092266628775e-02  -2.8403590229132730e-02  -1.1544602885701622e-02  -2.6375859884889139e-02  -2.7352655591186766e-02  -2.3949203015676143e-02  -1.4485315546728869e-02  -9.5244889446070170e-03  -1.0833108791148686e-02  -3.0759822260071901e-03  -1.5511681013684329e-02  -1.1028438626491442e-02  -6.8168589646142351e-03  -1.1957214406874086e-02  -1.1285809783997420e-02  -2.7118852498184819e-02  -2.0823240096357880e-02  -3.4293708023559494e-02  -8.1962393351121422e-03  -7.4176683836002242e-03  -1.8244048732571724e-02  -1.7237717915295492e-02  -1.6731693327825019e-02  -2.9381237752362076e-02  -2.3667541079625192e-02  -2.3678763294740699e-02  -2.7774621826218066e-02  -7.7291487749780357e-03  1.7624531531635186e-02  1.7700474210339504e-02  4.3163875553999594e-02  4.1717955572661440e-02  6.3754258908585007e-02  7.1417997237144079e-02  6.5154289800458384e-02  9.0287191164938316e-02  8.2103688458469645e-02  9.9158102152890421e-02  7.4251851865167959e-02  1.0623065411875600e-01  7.5277064838493071e-02  1.0056691161604965e-01  6.7608832645163305e-02  8.5595487305226592e-02  5.2093163027625185e-02  5.8871968461390478e-02  8.7160158240200722e-02  6.0820985669166293e-02  7.7148524254713205e-02  1.0405724563056992e-01  9.2488046505247695e-02  6.0912986439785786e-02  6.8220102452638376e-02  9.6080692784341046e-02  7.0631643630104823e-02  9.0634283949398556e-02  5.8666591677522389e-02  7.1984488810558717e-02  1.0188204895643672e-01  7.7470806452835897e-02  1.0630861863192341e-01  7.6899345989150256e-02  1.0187547514489118e-01  3.8059179401096807e-02  6.9561722269530640e-02  8.6391431107250172e-02  4.2580041196880344e-02  5.9121109697109681e-02  6.6451571760005074e-02  9.6980532946757583e-02  8.0460743920342290e-02  1.0036986550294424e-01  8.0089720987809782e-02  6.1100647018572429e-02  5.8015330156741589e-02  7.0016021151549146e-02  4.7103558704479201e-02  5.2711530885975348e-02  3.6047990242566656e-02  1.1527809294919714e-01  7.3822223133272163e-02  5.0662496124497906e-02  1.1657351278375876e-01  4.0827136850891697e-02  2.2836446440635573e-02  1.1185929092007557e-02  1.6401168511410266e-02  5.3516374758272013e-02  4.0325831806741298e-02  5.4377831352763216e-02  4.9296171983771411e-02  1.2923158949129893e-02  7.0547188978106801e-02  3.1007984538569584e-02  4.1385824688345292e-02  3.6048808526086780e-02  3.4699441093586691e-02  2.1924169185683812e-02  1.5640973489725516e-02  3.5357491641295882e-02  2.0840154641700106e-02  4.6571092807327616e-02  2.1705704564885010e-02  2.8523692152892060e-02  2.3603234151256959e-02  3.0755476396499365e-02  1.3376746545316429e-02  1.1412836430050337e-01  4.5852482897530404e-02  1.8477355652324855e-02  1.8083552571062405e-02  9.7974874657883893e-03  2.6930158955818854e-02  1.3884008526803486e-02  2.2678885395716566e-02  5.0623678882075446e-02  2.7068170146496852e-02  1.9419228551591824e-02  4.9220471639189805e-03  6.6170963171915042e-03  1.2829702058701334e-02  2.5142391351241439e-02  -1.4246383828192615e-02  5.4420368469862597e-02  1.9501396014012472e-02  3.4520291909202118e-02  6.8081068053390068e-03  -6.2910970680291932e-03  4.7436993668251028e-02  2.7497170702890178e-02  1.7535216465883196e-02  -8.1335425280170445e-04  2.9261322192732355e-03  4.6980677180081323e-02  2.3061419166073356e-02  1.2330268338997362e-01  2.5568526359318049e-02  3.3907897764193437e-02  1.0880448313445638e-02  -8.9607917331445774e-05  3.8229161705508566e-02  1.1238409331691127e-01  1.2880659377121734e-03  3.7624964677922625e-02  1.1715050871473983e-02  4.6292508236417902e-02  1.2403555001573267e-01  4.8343391363933124e-03  -6.7747274543028691e-03  1.1364475749132513e-01  9.1830027093907571e-02  9.0846298041591847e-02  -1.6846313797101279e-02  -7.5637551839406745e-03  -5.2065731850240013e-03  -6.5534341068905584e-03  -9.5541649603962178e-03  -1.8502035996445489e-02  -1.0580913812418942e-02  -1.1821258366493472e-02  -9.1189495672623303e-03  1.4273717994595482e-02  -1.7429243185129709e-03  -9.3951691608766767e-03  -1.3333291825856302e-02  -1.4435221970197009e-02  -8.5499346368999845e-03  -1.1623084452073816e-02  1.4771754609178312e-02  3.8243031561150387e-02  -1.7780031727019755e-02  1.7059323187711445e-02  -1.1580871838182606e-02  9.0755003134927043e-03  -1.0254580191228076e-02  1.0994285960199071e-02  -1.5341296999650205e-02  -9.3129099801649660e-03  -9.0850556662793458e-03  -1.0781784224608241e-02  -3.2425948081232413e-02  -1.2170227795816713e-02  -2.1294488381120941e-02  1.1755782951836297e-02  -1.0555189541579225e-02  -1.3150844046509630e-02  -2.0927517319776941e-02  -1.8911026820278461e-02  6.7008764506920060e-03  -1.6408682495636075e-02  -1.0760124021820106e-02  -7.0473162331205806e-03  1.0802193972036281e-01  -1.7869464890703277e-02  -2.1893723796035509e-02  -1.2961725333475319e-03  4.1819989350823795e-02  6.8517918640953711e-03  -8.7049518829007677e-04  1.1384979983904599e-01  1.2496951269615633e-01  1.2915150759145549e-01  -2.6422274274072500e-02  1.0197617218685234e-02  -3.6701813556127262e-02  3.3689336460602189e-03  -3.1972621072164760e-02  -1.8528825168450929e-02  1.2803609207273620e-01  8.0940971656495737e-03  -1.6447669564427765e-03  -2.4297079563401585e-02  1.2399404685598318e-01  1.4373351034061930e-02  4.5462619977205418e-03  -1.7384213570682885e-02  5.8605693974261497e-03  7.7656196551211514e-03  3.8096491905135692e-02  -3.6714281393145538e-02  1.3200742852316809e-02  1.1891734011245673e-01  4.1084557651435691e-02  -2.9395238931627873e-02  -2.9783912535059222e-02  3.2287124920650355e-02  -1.1675078810463157e-02  7.2812404783951321e-03  6.9625527903139514e-02  6.4339352070895348e-03  -1.7746030049947889e-02  9.6898516219424535e-03  6.2827544323216806e-04  1.0905056991669103e-01  2.0453733110722221e-02  -1.6579368909181037e-02  -2.9722682165399740e-03  4.4763829353907714e-02  2.6885159610300267e-02  6.8971215984908865e-02  7.1947110463130301e-03  -7.5945791815079759e-03  1.1979806094303292e-02  1.9725037213034779e-03  1.9077608927403986e-02  7.1262621612917744e-04  3.1622997253061447e-02  3.1361024379955985e-02  4.8284612971386948e-02  5.7503262283539643e-02  2.7485534700601010e-02  -3.5299280323177619e-02  -1.5918547495101857e-03  9.8250153265564012e-03  2.8085880157258207e-02  7.7022676480226534e-03  -8.7740120479201118e-03  4.8979061058473411e-02  2.9614451608040313e-02  5.2040300868891935e-02  4.1829205146178453e-02  1.4197751658183863e-02  3.3078061892691211e-02  -3.0600517964457397e-02  1.8669161928523147e-02  1.0004739582357638e-01  2.4727084454809162e-02  2.6941669137209912e-02  4.4923275300261682e-02  -2.9005328340395167e-02  4.4687744599981816e-02  1.2600016174848919e-01  4.5820363302376439e-02  1.9567638905951252e-03  5.7176553962171098e-02  5.6498903945946810e-02  3.8961801989381983e-02  -8.0001255545185390e-03  3.6660573019028204e-02  9.9105599831673333e-03  3.4157181682867944e-02  -8.5769498161999011e-02  -8.8974034244971953e-02  -9.5250666237376672e-02  -1.0202159216976352e-01  -9.7997186752034046e-02  -8.3638532093283632e-02  -8.7142288634913398e-02  -9.8284913035240479e-02  -8.1995033031772788e-02  -8.1702005903630734e-02  -8.6339140604987055e-02  -8.6327241592163900e-02  -8.0922821829645206e-02  -9.6913712652030123e-02  -8.3633740455390321e-02  -4.7385068504376723e-02  -4.4161297245256262e-02  -4.9156104075131005e-02  -8.7534953238476931e-02  -5.0963774308234129e-02  -5.4874999387284032e-02  -9.2814244362747989e-02  -8.5995556370530857e-02  -7.6459385411417682e-02  -5.4381281324757551e-02  -7.5049907562494120e-02  -5.1714801362446085e-02  -8.1743286055063674e-02  -5.2600174669464816e-02  -9.0699741563736683e-02  -8.2681367781086867e-02  -7.7174895389253761e-02  -5.2518887368278061e-02  -5.1258889351439289e-02  -7.3174296600044847e-02  -5.4713145752806377e-02  -5.0778387429010557e-02  -4.4880522402213269e-02  -4.8624770018799175e-02  -4.6932168476003788e-02  -8.0801789309995875e-02  -5.0835654750255345e-02  -5.1174471275557534e-02  -7.5257666353582678e-02  -5.6705283620656959e-02  -3.9989694683164004e-02  -3.6601988199890072e-02  -7.6581259008359923e-02  -5.6977376170303198e-02  -5.5635165645743050e-02  -4.8078476101930924e-02  -4.9764756711700248e-02  -4.5173659582766812e-02  -4.1585835233936178e-02  -4.4071055114131841e-02  -3.8585830892850635e-02  -4.3899601605021321e-02  -4.5175289142075900e-02  -2.9157915056265409e-02  -2.8412710594317749e-02  -7.5562537405676547e-02  -7.7434573325201511e-02  -7.6901914574238769e-02  -7.6966417261916845e-02  -7.9857423571898831e-02  -7.4886977637466171e-02  -7.0524480313555057e-02  -7.7343673581393588e-02  -7.3175162449642242e-02  -7.8323405304542223e-02  -7.9157529239788513e-02  -9.6245254617840115e-02  -1.0498322387892213e-01  -1.0659766750028973e-01  -1.1560957223270339e-01  -1.1827381519682689e-01  -1.1282841089841740e-01  -1.2557020449143266e-01  -1.2847590360304528e-01  -1.3181399069900504e-01  -1.3531832013144127e-01  -1.3203419920364309e-01  -1.3605608334786989e-01  -1.3238851275587959e-01  -1.3380164921553017e-01  -1.3269239552774598e-01  -1.2884964885509093e-01  -1.2337976783792354e-01  -1.2134565534346732e-01  -1.1982485998050844e-01  -1.2150098348943829e-01  -1.1410204755245382e-01  -1.1196949738359079e-01  -1.0740606537485518e-01  -1.2670029227713347e-01  -1.2627536159974967e-01  -1.0371933453773992e-01  -1.0128538774304154e-01  -1.0715635832337486e-01  -1.1941812505287580e-01  -9.6352252715077386e-02  -1.2415087668723972e-01  -1.1265685427132144e-01  -9.1363981432734068e-02  -9.5340691659314317e-02  -8.8128587331542912e-02  -9.1691111094495473e-02  -8.6999125443185207e-02  -9.0353140269090110e-02  -8.8129635469313156e-02  -9.1916628402274034e-02  -9.0353007995012752e-02  -9.6148009913380419e-02  -9.4807755498267934e-02  -1.0263703425245012e-01  -1.0056013770890034e-01  -1.1033427509152798e-01  -1.0666770524883459e-01  -1.1875647087301895e-01  -1.1257640994866402e-01  -1.2609785275222479e-01  -1.1655189696050308e-01  -1.3038051649582122e-01  -1.3307157071194467e-01  -1.3753644377800658e-01  -1.3044598246321451e-01  -1.3583444708868847e-01  -1.3930603104324962e-01  -1.3572637641592383e-01  -1.3743701273097253e-01  -1.2392569217567340e-01  -1.3155780108898063e-01  -1.3321807676434774e-01  -1.2284679159011104e-01  -1.1260711454005851e-01  -1.0409853466627446e-01  -1.2359063750385633e-01  -1.2734343310080470e-01  -1.3272700943758309e-01  -1.2687612110496160e-01  -1.2210329451064071e-01  -1.2157044063221424e-01  -1.1963465388362515e-01  -1.1473218172859549e-01  -1.1682682846938505e-01  -1.1300802091744681e-01  -1.1280465471667582e-01  -1.1391401662827236e-01  -1.1470576630794203e-01  -1.1049883599990923e-01  -1.1572702314780067e-01  -1.1155577692317739e-01  -1.1678274038421221e-01  -1.1614524247311206e-01  -1.2128766626731836e-01  -1.1523720664155719e-01  -1.2464468237490477e-01  -1.2252244391497819e-01  -1.2965365436293891e-01  -1.2626092246243939e-01  -1.3422256607873334e-01  -1.3093842159293140e-01  -1.3796136570654982e-01  -1.3587999960384942e-01  -1.4126468270568404e-01  -1.3738705559073497e-01  -1.4187981944375147e-01  -1.3986139384057619e-01  -1.4011047991142825e-01  -1.3796789600615494e-01  -1.3251728026244047e-01  -1.3494540964823526e-01  -1.3064655606044837e-01  -1.2498309341342256e-01  -1.2021722803137887e-01  -1.2645133385587823e-01  -1.1946179740735551e-01  -1.2672150705606075e-01  -1.1444203552024290e-01  -1.1378378501437918e-01  -1.1066987144301008e-01  -1.0813496309630490e-01  -1.0977608934403710e-01  -1.1199030888661836e-01  -1.0056366048735914e-01  -9.4784376491687611e-02  -7.0282735188174128e-02  -9.6936864347953233e-02  -1.1939596478784611e-01  -1.1793056219445573e-01  -1.0678181427199127e-01  -1.0825541250690046e-01  -1.0524299715715017e-01  -1.1528618422412547e-01  -9.5944634841017715e-02  -8.9466878671909431e-02  -9.4353192357659252e-02  -9.6831946846548014e-02  -8.8666661507079178e-02  -9.9793650777115647e-02  -1.0137790077779807e-01  -1.0971547117398822e-01  -8.2960214920825559e-02  -7.9869725244037001e-02  -1.0303392962504151e-01  -1.0179694155348348e-01  -1.1263815345155181e-01  -1.2062804173962723e-01  -1.1141926458712205e-01  -1.1465652647527702e-01  -1.0279481136287738e-01  -1.0796088913381612e-01  -1.0880419683499591e-01  -1.0700612344847163e-01  -1.0258335602097399e-01  -1.0624105406743597e-01  -9.7840177100907116e-02  -1.0538053092779429e-01  -1.0488419768767826e-01  -1.0792951635630267e-01  -1.0539142578837719e-01  -1.1227962681652424e-01  -1.0734305357768337e-01  -1.1439555152177598e-01  -1.1577488239331177e-01  -1.2239477390184453e-01  -1.1502660625259314e-01  -1.2515957396499619e-01  -1.2786243912768827e-01  -1.3371512047614528e-01  -1.3137699679682496e-01  -1.3932731151003419e-01  -1.3674288523416828e-01  -1.4243806989675725e-01  -1.4108646093656491e-01  -1.4484295538331346e-01  -1.4201154063808769e-01  -1.4322909092190439e-01  -1.3740869612676485e-01  -1.3714388181914694e-01  -1.3981111218538531e-01  -1.3014264464642333e-01  -1.2720707079694282e-01  -1.2039793479825153e-01  -1.2299249524649992e-01  -1.2629011254747116e-01  -1.1188148543941763e-01  -1.1720775132442664e-01  -1.1516475885475742e-01  -1.1410986023903155e-01  -1.0905892935888072e-01  -1.0721296529886656e-01  -1.0037164305909609e-01  -9.4499959422055080e-02  -9.7610402480338296e-02  -9.0150043642101746e-02  -1.0109664024755327e-01  -9.6513277804636116e-02  -1.0738498096040852e-01  -9.7456922578372379e-02  -9.0363615782561524e-02  -9.1949498286979681e-02  -1.1862164643984603e-01  -9.0885490559062102e-02  -9.9320462818312319e-02  -7.8590345953796367e-02  -1.0158143468689811e-01  -9.8411192420092122e-02  -8.6805090443004634e-02  -1.0689468516631709e-01  -8.3964630308036567e-02  -8.7166410863318597e-02  -8.9986921830036246e-02  -8.5602662144012326e-02  -8.2123578634116901e-02  -1.0244632935575053e-01  -9.1961664822935302e-02  -1.0205971619822127e-01  -1.0789497908640851e-01  -1.1175921590995685e-01  -1.042