<?xml version="1.0"?>
<VTKFile type="UnstructuredGrid"  version="0.1"  >
<UnstructuredGrid>
<Piece  NumberOfPoints="1277" NumberOfCells="2456">
<Points>
<DataArray  type="Float64"  NumberOfComponents="3"  format="ascii">0 0 0  0 1 0  1 1 0  1 0 0  1.1 -0.1 0  -0.1 -0.1 0  1.1 1.1 0  -0.1 1.1 0  0.5069819826694987 0.5048277825167509 0  0.6261358217683002 0.7344922973196111 0  0 0.9499999999997918 0  0 0.8999999999995836 0  0 0.8499999999996529 0  0 0.7999999999999998 0  0 0.7500000000003466 0  0 0.7000000000006934 0  0 0.6500000000010401 0  0 0.6000000000013869 0  0 0.5500000000017335 0  0 0.5000000000020587 0  0 0.4500000000018723 0  0 0.4000000000016644 0  0 0.3500000000014564 0  0 0.3000000000012483 0  0 0.2500000000010403 0  0 0.2000000000008322 0  0 0.1500000000006241 0  0 0.100000000000416 0  0 0.05000000000020799 0  0.04999999999989965 0 0  0.09999999999981467 0 0  0.1499999999997036 0 0  0.1999999999995579 0 0  0.2499999999994121 0 0  0.2999999999992664 0 0  0.3499999999991206 0 0  0.3999999999989749 0 0  0.4499999999988292 0 0  0.4999999999986943 0 0  0.5499999999988151 0 0  0.5999999999989468 0 0  0.6499999999990784 0 0  0.69999999999921 0 0  0.7499999999993417 0 0  0.7999999999994734 0 0  0.8499999999996051 0 0  0.8999999999997368 0 0  0.9499999999998684 0 0  1 0.04999999999989965 0  1 0.09999999999981467 0  1 0.1499999999997036 0  1 0.1999999999995579 0  1 0.2499999999994121 0  1 0.2999999999992664 0  1 0.3499999999991206 0  1 0.3999999999989749 0  1 0.4499999999988292 0  1 0.4999999999986943 0  1 0.5499999999988151 0  1 0.5999999999989468 0  1 0.6499999999990784 0  1 0.69999999999921 0  1 0.7499999999993417 0  1 0.7999999999994734 0  1 0.8499999999996051 0  1 0.8999999999997368 0  1 0.9499999999998684 0  0.9499999999997918 1 0  0.8999999999995836 1 0  0.8499999999996529 1 0  0.7999999999999998 1 0  0.7500000000003466 1 0  0.7000000000006934 1 0  0.6500000000010401 1 0  0.6000000000013869 1 0  0.5500000000017335 1 0  0.5000000000020587 1 0  0.4500000000018723 1 0  0.4000000000016644 1 0  0.3500000000014564 1 0  0.3000000000012483 1 0  0.2500000000010403 1 0  0.2000000000008322 1 0  0.1500000000006241 1 0  0.100000000000416 1 0  0.05000000000020799 1 0  -0.1 1.05000000000004 0  -0.1 1.000000000000079 0  -0.1 0.9500000000001624 0  -0.1 0.9000000000003032 0  -0.1 0.850000000000444 0  -0.1 0.8000000000005848 0  -0.1 0.7500000000007256 0  -0.1 0.7000000000008665 0  -0.1 0.6500000000010508 0  -0.1 0.6000000000012352 0  -0.1 0.5500000000014196 0  -0.1 0.500000000001539 0  -0.1 0.4500000000014195 0  -0.1 0.4000000000013 0  -0.1 0.3500000000011588 0  -0.1 0.3000000000010178 0  -0.1 0.2500000000008986 0  -0.1 0.2000000000007579 0  -0.1 0.1500000000006174 0  -0.1 0.1000000000005272 0  -0.1 0.05000000000040083 0  -0.1 2.671196597248127e-13 0  -0.1 -0.0499999999998666 0  -0.0500000000000906 -0.1 0  -1.730560139634463e-13 -0.1 0  0.04999999999975802 -0.1 0  0.09999999999961506 -0.1 0  0.1499999999994613 -0.1 0  0.199999999999302 -0.1 0  0.2499999999991446 -0.1 0  0.2999999999990088 -0.1 0  0.3499999999988296 -0.1 0  0.3999999999986936 -0.1 0  0.4499999999985143 -0.1 0  0.4999999999984002 -0.1 0  0.5499999999985247 -0.1 0  0.5999999999986493 -0.1 0  0.6499999999987955 -0.1 0  0.6999999999989417 -0.1 0  0.7499999999990659 -0.1 0  0.7999999999992116 -0.1 0  0.8499999999993573 -0.1 0  0.8999999999994526 -0.1 0  0.949999999999584 -0.1 0  0.9999999999997226 -0.1 0  1.049999999999861 -0.1 0  1.1 -0.0500000000000906 0  1.1 -1.730560139634463e-13 0  1.1 0.04999999999975802 0  1.1 0.09999999999961506 0  1.1 0.1499999999994613 0  1.1 0.199999999999302 0  1.1 0.2499999999991446 0  1.1 0.2999999999990088 0  1.1 0.3499999999988296 0  1.1 0.3999999999986936 0  1.1 0.4499999999985143 0  1.1 0.4999999999984002 0  1.1 0.5499999999985247 0  1.1 0.5999999999986493 0  1.1 0.6499999999987955 0  1.1 0.6999999999989417 0  1.1 0.7499999999990659 0  1.1 0.7999999999992116 0  1.1 0.8499999999993573 0  1.1 0.8999999999994526 0  1.1 0.949999999999584 0  1.1 0.9999999999997226 0  1.1 1.049999999999861 0  1.05000000000004 1.1 0  1.000000000000079 1.1 0  0.9500000000001624 1.1 0  0.9000000000003032 1.1 0  0.850000000000444 1.1 0  0.8000000000005848 1.1 0  0.7500000000007256 1.1 0  0.7000000000008665 1.1 0  0.6500000000010508 1.1 0  0.6000000000012352 1.1 0  0.5500000000014196 1.1 0  0.500000000001539 1.1 0  0.4500000000014195 1.1 0  0.4000000000013 1.1 0  0.3500000000011588 1.1 0  0.3000000000010178 1.1 0  0.2500000000008986 1.1 0  0.2000000000007579 1.1 0  0.1500000000006174 1.1 0  0.1000000000005272 1.1 0  0.05000000000040083 1.1 0  2.671196597248127e-13 1.1 0  -0.0499999999998666 1.1 0  0.6515502438707358 0.7287214558344183 0  0.6760996237659596 0.7198447990335451 0  0.6991835958643222 0.7075665338477035 0  0.7203228902188141 0.6921717986368089 0  0.7392054736260615 0.6740796761142632 0  0.7538548365065455 0.652503794863872 0  0.7638884163655415 0.6285435071708357 0  0.7719724940931674 0.6039332264816074 0  0.7776602623545622 0.5787091575575022 0  0.780984364881085 0.5531249534115283 0  0.7823482469104514 0.5274143155481349 0  0.7819295296391665 0.5017139557832488 0  0.7796248869373922 0.4761438936990907 0  0.7754728709726534 0.4508345347181999 0  0.7695747069567576 0.4258914600065185 0  0.7617633785541331 0.4014927580481398 0  0.7520595653587603 0.3777736521909652 0  0.7405784585062773 0.3548368876050818 0  0.7271626462545073 0.3329463267865927 0  0.71180157562443 0.3122946772160312 0  0.6942733494911943 0.2932772729391641 0  0.674797146151762 0.2761515847546344 0  0.6531357336370098 0.2617329848416104 0  0.6297011653811849 0.2503702912137482 0  0.6044448034902008 0.2440086936104886 0  0.5785744661605754 0.2412375614954201 0  0.5526118762061958 0.2413473962707793 0  0.526832215302607 0.2438158758342517 0  0.5014248687628028 0.2484470838408965 0  0.4763398120172511 0.2543569734595784 0  0.4516112452657097 0.2614115766429082 0  0.4272696207739243 0.2695555169279327 0  0.4034621636685433 0.2788726237761658 0  0.3803265119742336 0.2893764448713121 0  0.3578452848581587 0.3010642773397725 0  0.3360853597249346 0.3138261917423875 0  0.3150786131173549 0.3277323051956117 0  0.2949591446183805 0.3428615904615176 0  0.2757582396366884 0.3591371869288988 0  0.2573811693257874 0.3763761210618771 0  0.2399676363199116 0.3946529228179173 0  0.2234884020806251 0.4139044222966917 0  0.2079487588253855 0.4340842935063625 0  0.1934674345659949 0.455210817614913 0  0.1814211498479286 0.477978186688716 0  0.1725295363925082 0.5023352973443286 0  0.1711136945212024 0.52835527910974 0  0.1760701926256961 0.5540978411938297 0  0.1870595960063259 0.5776889729291746 0  0.2031286700455829 0.5980848129441358 0  0.2208372072479854 0.6168644956726536 0  0.2399087649856613 0.634097457607485 0  0.2598552388487368 0.6501289642200851 0  0.2805372204476796 0.6651095946212287 0  0.3021179600673223 0.6787507072530479 0  0.3245614567193647 0.6909227582866577 0  0.3478175171662382 0.7014815709779981 0  0.371602463304997 0.7108466951597134 0  0.3959081719741231 0.7190027989628609 0  0.4207145008277243 0.7257290123422255 0  0.4458752836370585 0.731183612516508 0  0.471305429732461 0.7355052999727916 0  0.496926349686177 0.7388065891470813 0  0.5227183032982478 0.7408328520400298 0  0.5486107416027545 0.7415304371456697 0  0.5745487146361612 0.7408738154269089 0  0.6004493819763064 0.7385827660151416 0  0.263384589727893 0.6241407306065269 0  0.2490801501815328 0.4196115707494673 0  0.7378275268655596 0.633124869379683 0  0.759747764264543 0.5385518050870332 0  0.6320309115716641 0.712111545055478 0  0.6112113699840108 0.2682361739317666 0  0.7026546784959883 0.3352557735106894 0  0.5186194194949035 0.2663552478950248 0  0.3017761555283582 0.3681216473244758 0  0.3578578711687229 0.325043136930804 0  0.4496222648114107 0.2900381750729353 0  0.324094696604988 0.6658463525454571 0  0.3901960417008848 0.6945889565083192 0  0.4626066732799616 0.7112483720331655 0  0.5365372896650171 0.720373673799237 0  0.7437372639919452 0.4193501157279512 0  0.2011005367255127 0.5562399540122918 0  0.2066381759557869 0.4780352532717306 0  0.6968053831069265 0.6828654409280236 0  0.4012282564683289 0.3039585701504871 0  0.7544247995587 0.467756708690316 0  0.5854981862764814 0.7191754893828313 0  0.7526360647337409 0.5845084449864768 0  0.7258248072243715 0.3754266569600646 0  0.6709267810740718 0.2996208710719946 0  0.5686993491230348 0.2601157426373385 0  0.2278939474014362 0.5933851029337691 0  0.1913034520491859 0.5148885290333449 0  0.4878689858499609 0.7155178512406276 0  0.4805096052669768 0.6911305378797071 0  0.4542023624479488 0.6867229668079375 0  0.4726813064148872 0.6662763556496388 0  0.4437859213736728 0.6615621594160371 0  0.4593424175274338 0.6437058546341835 0  0.4841917231064486 0.6398974007712358 0  0.4338094888119373 0.6353074234117948 0  0.4551216352795197 0.6097903967358052 0  0.4142839218386442 0.6055471929780518 0  0.5021289400570005 0.6044083363208886 0  0.541092127680722 0.6359454253563291 0  0.5471085291631835 0.5866490631765826 0  0.5806605059409025 0.6234329220785882 0  0.5909252162886722 0.5739637334227637 0  0.6231446311930454 0.6103264265831543 0  0.6342709345848033 0.5602380201304406 0  0.6681613344348124 0.5915377780821368 0  0.6792131800102655 0.5525508175422723 0  0.6459579925942986 0.5224241428882131 0  0.6843297380204179 0.519863375156158 0  0.6632136868961869 0.4866940474088087 0  0.6185322976256967 0.4943556156722289 0  0.6309035796410257 0.4556827367248258 0  0.6742934941133266 0.4437268776265946 0  0.6472026821527561 0.4130760217347676 0  0.603063563833514 0.4236232486127147 0  0.6165894248106879 0.385770914967257 0  0.5758335411038057 0.3924269176248981 0  0.5929760676330835 0.3524963623458738 0  0.5479505894396441 0.3552232635980946 0  0.5348139516058278 0.39748705397932 0  0.5055543133280211 0.3596026111436693 0  0.4914698982520978 0.4044932380454389 0  0.4615415289001993 0.3669721019595905 0  0.4471848867844992 0.4106006608655595 0  0.654745485759752 0
[...]
<PointData  Scalars="u"> 
<DataArray  type="Float64"  Name="u"  format="ascii">-1.7295865636848380e-18  -7.7002677368084545e-19  -2.3194572460126887e-17  -7.2939083923161065e-19  2.1119219370353675e-20  1.4379776062593432e-19  -2.6286781180149076e-19  4.3545628987950715e-20  1.3454562163118788e-01  -6.4542242802866259e-02  -5.1763972998006944e-19  -1.7602968490471166e-17  -9.9137937460776695e-18  -1.4727256004369538e-17  -2.6473383711157173e-17  -2.5724931951359614e-17  1.4173597593581769e-18  4.9840450262488399e-17  1.8381133880679474e-18  -4.3095821994099397e-17  4.6217160078244553e-18  -1.1149587987075405e-17  -9.1592847337861393e-18  3.1347584757559727e-17  1.4929329378987557e-17  6.0890123840151269e-19  9.1529365438221323e-18  -1.3675414857249865e-18  1.8932605962616776e-17  -1.3457472789025004e-17  -1.5615302171877861e-17  -8.0391652554706810e-18  -2.9583278639394718e-17  -1.6847422042858302e-17  -3.0282643072283644e-17  5.8980311701321713e-17  -2.6634927275658498e-17  -5.3854811146922466e-17  4.6831180077133240e-17  -6.9125868835134478e-17  -5.4795071931508064e-17  -7.2324627014167244e-17  -4.0709910979637616e-18  1.7379584800693641e-17  -6.5736103077152821e-17  -2.4277583515374833e-17  -1.1687598245048063e-17  -1.3947922744614454e-18  1.5248940777881577e-17  4.3687417557513295e-17  -2.2340039395881581e-18  -1.6048731139717276e-16  1.9729401985238804e-16  2.8289516104189967e-18  -1.6115571866858492e-16  -2.0942629973498827e-17  1.6373400327819168e-16  -1.3113000054017440e-16  -4.0485909278093773e-16  -3.9514180452482634e-17  1.4695045622822627e-16  1.1790912301173061e-16  -1.1835483443956105e-17  1.9457242657316065e-16  8.9895125913052717e-18  -1.1424027616557705e-17  -8.2529529203999268e-17  -8.8845462870750213e-19  -3.8960542476263061e-17  -3.1327010867962458e-17  1.2964830502099029e-16  -8.7403448813010448e-18  -6.0716219802703994e-18  1.4914345696210051e-17  -2.5552123120026645e-16  1.0974158751584191e-16  2.2029187364130148e-16  -9.8123038954654407e-17  7.1603850964229792e-17  3.4340072369781432e-16  3.1522628639285992e-16  -1.6925239486545834e-16  6.1606486791221846e-17  2.0350793915672734e-18  8.1553084745965478e-17  6.3459232456376167e-17  -1.0103044055301068e-19  2.1177066325029801e-19  -8.8446114958314769e-19  -1.6710843898983333e-18  -1.8637595783150232e-18  -1.8359586049736127e-18  -4.5134924143471597e-18  -4.8945935939473013e-18  1.5248002902343664e-18  6.2242317048344567e-18  8.1676603177414687e-19  -5.1648788273988136e-18  -1.7845147443465564e-18  -1.0639784139691125e-18  -6.5180424033137063e-19  1.2980755537257356e-18  2.7694360907789635e-18  1.0629912107046010e-18  6.9904337609094223e-20  1.9916575402246045e-18  8.8304530828083077e-19  6.8716563191714526e-19  -4.0439089772662418e-19  8.7894500233405815e-20  -3.6092008709116684e-19  -1.3392302016530704e-18  -3.5055219846558168e-18  -2.6163102423731446e-18  -2.8766055893838063e-18  -4.9527809800453069e-18  1.3973139431513790e-18  5.9466514392235457e-18  -4.0178728802386188e-18  -4.2071758506775419e-18  -2.8454682725068172e-19  -5.7756670859370394e-18  -1.0529090589499748e-17  -8.9765501886577004e-18  1.4988196546499772e-18  1.6903118147295937e-18  -7.2810026623567983e-18  -5.0086985127089145e-18  -9.3351455418703019e-19  -1.8032595662852338e-19  -7.8815242597384538e-20  -1.8273522149988755e-20  -4.5111865115384138e-21  -2.4882177754612539e-20  -7.4547442407236439e-19  -9.1861684884658483e-19  -1.9205849281740709e-18  -1.0240282659303528e-19  4.5832301100439080e-18  -1.0704169484354705e-18  -6.8158804337620642e-18  -3.9901290016232013e-18  -2.0862911936764101e-18  -1.9486162358267745e-18  -4.4933944606126125e-18  -3.0080294539772531e-18  4.4274473661570347e-18  -1.6095360072494370e-19  -1.2046908512454112e-18  2.2977699545545508e-18  1.1677381735725150e-18  -1.5178914593333147e-18  -1.6572359672402258e-18  1.6722759083726566e-19  2.8067416241596499e-19  6.9750886140122812e-20  7.1685715075464354e-19  -6.1544610380021937e-19  -2.7115598932219258e-18  -4.3440961189016365e-18  -4.5594673602031047e-18  -2.1776603712898553e-18  -1.4433275856250364e-19  4.9253065572003058e-19  -3.3204552989334857e-18  -1.2862101187635426e-18  7.0768587107949001e-19  -6.9815043103517298e-19  -4.1863234895800002e-18  1.8899793788628595e-18  6.1850684145538711e-18  -2.5352798319861927e-18  -3.2434752159574394e-18  4.5593220205493513e-20  3.7428049177497927e-19  -2.1202431811569893e-19  -1.0065552043360324e-19  2.1032689913025428e-22  -6.8744007097805815e-02  -7.1984802992138192e-02  -7.4125673262540673e-02  -7.4491290313490471e-02  -7.3281446528426122e-02  -6.9612155294264899e-02  -6.4210050684165687e-02  -5.9257286753424093e-02  -5.4828496803260934e-02  -5.1344485006350374e-02  -4.8996511834589189e-02  -4.7922597334862746e-02  -4.8100277022139176e-02  -4.9265396090478746e-02  -5.1450086279929752e-02  -5.4430670694358335e-02  -5.7837902020284625e-02  -6.1375594823525739e-02  -6.4883730944486601e-02  -6.7963739298560352e-02  -7.0101584019099453e-02  -7.1379446924336121e-02  -7.1434624722180901e-02  -7.0334292083060634e-02  -6.7343947051010794e-02  -6.3856181517149224e-02  -6.0610437925140113e-02  -5.7865262134076514e-02  -5.5716959764086693e-02  -5.4449822996777565e-02  -5.4110466749825760e-02  -5.4615964509970541e-02  -5.5417873430242112e-02  -5.6321260281779126e-02  -5.7399943114344446e-02  -5.7822891370738226e-02  -5.8488944428748066e-02  -5.8378892496065732e-02  -5.7854011803318950e-02  -5.6980631498078041e-02  -5.5932204119375398e-02  -5.4992665112218522e-02  -5.4402878770830498e-02  -5.4487660772977842e-02  -5.4757836214113023e-02  -5.5537641569532309e-02  -5.6531385304848823e-02  -5.8122967697952568e-02  -5.9601282721510600e-02  -6.0371518573985927e-02  -6.0880377146497758e-02  -6.1155790965735972e-02  -6.1266662151501970e-02  -6.1274880166759020e-02  -6.0860343383404736e-02  -5.9930760318658668e-02  -5.8289273756404407e-02  -5.6600159049437937e-02  -5.4976890810900590e-02  -5.3268333357401873e-02  -5.2098003749745304e-02  -5.1542073165968691e-02  -5.1837879127688696e-02  -5.2837547442116696e-02  -5.4784816012668582e-02  -5.7594273747302277e-02  -6.0882402772513472e-02  -1.7977304517348167e-02  -1.2550572970230073e-02  -2.6650012093338411e-02  -1.0259568484613044e-02  -2.4246020173656780e-02  -2.7443293249749569e-02  -2.3639439905636061e-02  -1.4745813905804086e-02  -1.0029485861654537e-02  -1.1442296155724486e-02  -3.4430005143234474e-03  -1.4432683388238991e-02  -9.6340773574665386e-03  -5.0530432376942108e-03  -9.9132192668250109e-03  -1.0610137005423063e-02  -2.6388356956107570e-02  -2.0454751248104325e-02  -3.2296366656766239e-02  -8.7185614732195466e-03  -6.5016535678816935e-03  -1.6128463726941541e-02  -1.5724298520263538e-02  -1.6249714057217046e-02  -2.9244750491380145e-02  -2.3876415162810683e-02  -2.2877179541076906e-02  -2.7197483862082865e-02  -5.8511262655144922e-03  1.9368480531769740e-02  1.9332319415324400e-02  4.4759841189524877e-02  4.3211733189843664e-02  6.5215266540718200e-02  7.2936764029210205e-02  6.6518151463619210e-02  9.1613005921375210e-02  8.3307671015924373e-02  1.0056766110056647e-01  7.5895322474567553e-02  1.0763929169881789e-01  7.6936569745894981e-02  1.0198998659594348e-01  6.9261956379155845e-02  8.7009296368646669e-02  5.3684146409486981e-02  6.0273469802761527e-02  8.8396771179449898e-02  6.2076317741460101e-02  7.8196469710850675e-02  1.0514006596588117e-01  9.3381202833435234e-02  6.1783291316486966e-02  6.8901043061265793e-02  9.6788830200956411e-02  7.1165865457053668e-02  9.1139707954171895e-02  5.9017132333659565e-02  7.2279748276957725e-02  1.0234144879435779e-01  7.7683468893639696e-02  1.0671891966405177e-01  7.7025601019599488e-02  1.0221531822802377e-01  3.9812577824543581e-02  6.9620961834973474e-02  8.6606360553782347e-02  4.2674930881571337e-02  6.0345530503709367e-02  6.7546224373745953e-02  9.7991918637774747e-02  8.1386002905559876e-02  1.0119099211822143e-01  8.0863225006175737e-02  6.1965577389361988e-02  5.8739349717676359e-02  7.0604678376914240e-02  4.7669083377545947e-02  5.3129479566987672e-02  3.6732223938635004e-02  1.1582171900962417e-01  7.4244968502729436e-02  5.0935155721666542e-02  1.1746315626257538e-01  4.1190035819642389e-02  2.3396708204771910e-02  1.1858424577910819e-02  1.7168051328920141e-02  5.3518934630462485e-02  4.1059460640444322e-02  5.6121971827215747e-02  4.9250550394476372e-02  1.4771405814274240e-02  7.0720156133116413e-02  3.2589845979894123e-02  4.1251738775980241e-02  3.5862790422482312e-02  3.4603928134712934e-02  2.1626715837347887e-02  1.7156187632708948e-02  3.6486533046927255e-02  2.2067770689676639e-02  4.8360762198493272e-02  2.3626693233856532e-02  2.8713971535454359e-02  2.3578522805533988e-02  3.1616048555140143e-02  1.4045214838723593e-02  1.1532268146789941e-01  4.6370909586445234e-02  1.9010136660551468e-02  1.8442424610647944e-02  1.0036200001783339e-02  2.7036393335504259e-02  1.3902304010685323e-02  2.2659959193761427e-02  5.0655597310403172e-02  2.6959365107191102e-02  2.1156968342923341e-02  6.5527867644416685e-03  8.4683119497784426e-03  1.4726334199027552e-02  2.4943728625359783e-02  -1.2429804835128544e-02  5.5400112255835805e-02  2.0521410799484621e-02  3.5447914926019182e-02  7.7377263586280555e-03  -5.5431732725305478e-03  4.8477053570318618e-02  2.8635574277521295e-02  1.8452958126667505e-02  -2.9017098764286226e-04  3.2892234633692214e-03  4.8710485917787053e-02  2.4958360348291027e-02  1.2396674668267969e-01  2.5941497288854514e-02  3.5320440551878024e-02  1.2326789730490676e-02  -4.2618858028910039e-05  3.9629361558602638e-02  1.1304831276684078e-01  1.4533914047188169e-03  3.8453321642962703e-02  1.2551903791107585e-02  4.6412787153996930e-02  1.2520911527268885e-01  4.7454774406151257e-03  -7.1312868218847388e-03  1.1453571423004297e-01  9.2473672968213669e-02  9.1301510827079296e-02  -1.6646573074834140e-02  -5.9238284454676479e-03  -4.4083654866999703e-03  -7.1242455171022937e-03  -9.8984574979090103e-03  -1.7575274154054771e-02  -9.3012048502109923e-03  -9.8595866835419939e-03  -7.1066529628708930e-03  1.6212704198580861e-02  2.9471950635529378e-04  -9.9683687426360291e-03  -1.2679963431257569e-02  -1.5049137862225309e-02  -9.0221659322323160e-03  -1.1916296229906252e-02  1.4438765144213404e-02  3.8069664048772510e-02  -1.6786899503067890e-02  1.6836816300760445e-02  -1.0405958345551334e-02  1.0214012915215084e-02  -9.0897059723844837e-03  1.2236691901361325e-02  -1.3250186681632841e-02  -8.2751375444724724e-03  -7.5737896184865511e-03  -9.9923211208513690e-03  -3.0370282426010576e-02  -1.1598356512010018e-02  -2.0458919710127567e-02  1.2788812822472661e-02  -8.5789849158476456e-03  -1.1750688724821231e-02  -2.0534895013130317e-02  -1.7276055321416187e-02  6.8495040817746098e-03  -1.6364918615767932e-02  -1.0834207420003570e-02  -6.7958373398063461e-03  1.0926327948432418e-01  -1.8094586137641359e-02  -1.9763847559940158e-02  -8.8029271351883404e-04  4.3512584206747078e-02  6.6812315428099924e-03  -7.8251098138020254e-07  1.1454100882408892e-01  1.2559207456109212e-01  1.2994767097433735e-01  -2.6196502722821684e-02  1.1519057067820485e-02  -3.4776831078773308e-02  5.3801562596015083e-03  -3.1932488013127550e-02  -1.8506251277916400e-02  1.2893493964718353e-01  8.8815813078771157e-03  -1.7421532805383028e-03  -2.3523619344012332e-02  1.2518260941858086e-01  1.4006162983244265e-02  4.4182960688836396e-03  -1.6860464255864051e-02  6.9221099302493932e-03  8.8943936226797329e-03  3.9884808155473780e-02  -3.4862133979969054e-02  1.4610115445594410e-02  1.1996985482291934e-01  4.1709117428144697e-02  -2.7289869438603370e-02  -2.9127215188763794e-02  3.3551446134686129e-02  -1.1525776252904607e-02  7.3415406892841043e-03  7.1224631235273686e-02  7.7785834423002983e-03  -1.5833139665337996e-02  9.3191854101004924e-03  2.1707026315709514e-03  1.1014183780579197e-01  2.0914553400572508e-02  -1.6884531162411162e-02  -2.6332985347529893e-03  4.4805337783770036e-02  2.6832216701709988e-02  6.9236216021462391e-02  6.9784992359266159e-03  -6.7633982311635105e-03  1.1575263095415818e-02  4.0002553026721168e-03  1.8887859147368482e-02  1.6946202542455857e-03  3.1398243945288631e-02  3.2420204225395870e-02  4.9466344295176372e-02  5.7477949437107011e-02  2.9144109463064120e-02  -3.5359665477212358e-02  -1.1101466996176405e-03  1.0403720375568543e-02  2.9976436595420222e-02  9.6379194049760371e-03  -7.0566912593086365e-03  4.8916238966372469e-02  2.9820338299593657e-02  5.2045984362125923e-02  4.3026823419409513e-02  1.3897486680659162e-02  3.4380910769516174e-02  -3.0804988509754754e-02  1.9553944006752640e-02  1.0048381618461151e-01  2.5697831931618894e-02  2.8768574673633220e-02  4.6716742603373183e-02  -2.8530440833484078e-02  4.6458645379109625e-02  1.2700575555946628e-01  4.5795284164296964e-02  3.9550282953422587e-03  5.8479703084313439e-02  5.6488007582115522e-02  4.0022227321625935e-02  -5.9562877614904213e-03  3.7461700084877189e-02  9.4959706965391470e-03  3.5640960520164057e-02  -8.6576454825079335e-02  -8.7958029290574974e-02  -9.5240206093180124e-02  -9.9937243169151146e-02  -9.6023567745254598e-02  -8.4511485392441091e-02  -8.5793220212188645e-02  -9.6104716793398048e-02  -8.2433982318565566e-02  -7.9973106809753600e-02  -8.5844134221968724e-02  -8.5507978345987251e-02  -8.1765801429096313e-02  -9.7283019243156924e-02  -8.1517178353301870e-02  -4.6083883581685824e-02  -4.4148379805327834e-02  -4.9983607970162533e-02  -8.5695240466200959e-02  -4.9985684627365079e-02  -5.5016300814112552e-02  -9.3520276789576792e-02  -8.6842770438067721e-02  -7.5441881431470112e-02  -5.3989472986309670e-02  -7.3491214097998275e-02  -5.0218103813628574e-02  -8.2599888892492451e-02  -5.4124873736384929e-02  -8.8505445311920353e-02  -8.1944250138328165e-02  -7.7076047468198489e-02  -5.1339476680221423e-02  -4.9964912356979467e-02  -7.1870094927929021e-02  -5.6465726024229876e-02  -4.9566406661951494e-02  -4.3848162226569745e-02  -4.8523123452675052e-02  -4.5116816317594823e-02  -7.8848083423707346e-02  -4.9657204208426127e-02  -5.3345100832175744e-02  -7.4896864362950913e-02  -5.9091006427560523e-02  -3.8425299314256312e-02  -3.4761660226146969e-02  -7.6002749086323457e-02  -5.9579547648169126e-02  -5.5246869297819114e-02  -4.7701756948559014e-02  -5.0092355880059829e-02  -4.4967582306842405e-02  -4.0571773790216377e-02  -4.4849451789284962e-02  -3.8344312500007111e-02  -4.3245900114124464e-02  -4.5633427463186570e-02  -2.8329167752227932e-02  -2.8666848199105931e-02  -7.5110358973919031e-02  -7.7053229761535835e-02  -7.6462832381552243e-02  -7.6600362552086645e-02  -7.9541705156253292e-02  -7.4486982418689812e-02  -7.0199844896334171e-02  -7.6866754241720556e-02  -7.2760494648023338e-02  -7.7828209096922785e-02  -7.8514697508025644e-02  -9.6824572256020647e-02  -1.0566718513212729e-01  -1.0708714448588350e-01  -1.1646394250833302e-01  -1.1892774955166868e-01  -1.1388806494123063e-01  -1.2659828226345804e-01  -1.2918143456699538e-01  -1.3295083936632707e-01  -1.3611825522240753e-01  -1.3245480216407607e-01  -1.3651344653321246e-01  -1.3248555986962410e-01  -1.3461727702959650e-01  -1.3280658872420800e-01  -1.2860530573154766e-01  -1.2314000723088676e-01  -1.2145352354250237e-01  -1.1924073160879496e-01  -1.2091594233028931e-01  -1.1317774190272119e-01  -1.1110530924893923e-01  -1.0617921692480724e-01  -1.2816238806604560e-01  -1.2782533970537668e-01  -1.0258581743016601e-01  -9.9807990928008128e-02  -1.0655488057953101e-01  -1.2131702138322692e-01  -9.4831432920411005e-02  -1.2426624640855596e-01  -1.1212400501461384e-01  -8.9552798076893120e-02  -9.3599620623865093e-02  -8.6091030048252651e-02  -8.9757914617240142e-02  -8.4790623442258933e-02  -8.8306186421084079e-02  -8.5802085378985732e-02  -8.9756424158684150e-02  -8.7953582743532169e-02  -9.3878022140405179e-02  -9.2386076794702759e-02  -1.0034258377660037e-01  -9.8160257016606620e-02  -1.0801804733527907e-01  -1.0432344465701288e-01  -1.1647633159812840e-01  -1.1032649068594456e-01  -1.2388012299844285e-01  -1.1442085501561595e-01  -1.2824869024957281e-01  -1.3088787437807306e-01  -1.3540481407341071e-01  -1.2841014715642726e-01  -1.3377457667274018e-01  -1.3716782581666917e-01  -1.3365242916633616e-01  -1.3529491377626016e-01  -1.2199720036824448e-01  -1.2949221960230831e-01  -1.3108868724395367e-01  -1.2086695790806416e-01  -1.1075478768615948e-01  -1.0237158391939402e-01  -1.2157496136568373e-01  -1.2524974008836845e-01  -1.3054297889927935e-01  -1.2470014742289448e-01  -1.1994801710298887e-01  -1.1953111403525797e-01  -1.1754377454683292e-01  -1.1278768993136477e-01  -1.1481421389227744e-01  -1.1088238952914287e-01  -1.1073550159433082e-01  -1.1198291574050959e-01  -1.1272686562097055e-01  -1.0865944288838632e-01  -1.1383357444374123e-01  -1.0957217492535029e-01  -1.1488592592992043e-01  -1.1433079406169767e-01  -1.1947867154416567e-01  -1.1350617033020077e-01  -1.2291327767652391e-01  -1.2076013892155793e-01  -1.2798226013497835e-01  -1.2461649891122874e-01  -1.3264357206813324e-01  -1.2937585124619683e-01  -1.3649489454845687e-01  -1.3440636308163631e-01  -1.3990789652394037e-01  -1.3606068363446000e-01  -1.4066415417171169e-01  -1.3863719040924508e-01  -1.3902558092195191e-01  -1.3689284271541133e-01  -1.3145058339555876e-01  -1.3399416990868807e-01  -1.2969849126113034e-01  -1.2415194165219261e-01  -1.1938381308280151e-01  -1.2541405600710465e-01  -1.1868944961137302e-01  -1.2551797177904694e-01  -1.1342164395624166e-01  -1.1155981198970813e-01  -1.0995625132387861e-01  -1.0739986392175714e-01  -1.1171457934963817e-01  -1.1116451501132836e-01  -9.9850101140752420e-02  -9.4159047543696514e-02  -6.7996875967923323e-02  -9.6148799053757672e-02  -1.2092612310660278e-01  -1.1704831887408923e-01  -1.0492545983250175e-01  -1.0644158087516704e-01  -1.0329968831744543e-01  -1.1308296163825564e-01  -9.3842129737079061e-02  -8.8863791777729684e-02  -9.2286270691790573e-02  -9.6022025022108923e-02  -8.7135589395311144e-02  -9.8060531612677332e-02  -9.9715706239563509e-02  -1.1006189996457047e-01  -8.1407794143166790e-02  -7.7489380885569004e-02  -1.0089539561093161e-01  -9.9621239228306180e-02  -1.1046698251466776e-01  -1.2240397945518833e-01  -1.1365387150825856e-01  -1.1667161821446703e-01  -1.0530399377780024e-01  -1.1030676554146748e-01  -1.1061888669094083e-01  -1.0907280222606147e-01  -1.0511886519959651e-01  -1.0840643483498649e-01  -1.0044936811345299e-01  -1.0770674406530788e-01  -1.0682727324066410e-01  -1.0987160844010876e-01  -1.0772251428875702e-01  -1.1428062723298875e-01  -1.0898875005378311e-01  -1.1605238744156934e-01  -1.1770833972068603e-01  -1.2404362691950378e-01  -1.1642796024210629e-01  -1.2655131369510944e-01  -1.2941423959245879e-01  -1.3499674348976362e-01  -1.3277626993308855e-01  -1.4050287377478576e-01  -1.3785467956642439e-01  -1.4341960458750322e-01  -1.4211909221284216e-01  -1.4568779126075226e-01  -1.4280472632101146e-01  -1.4389271033642448e-01  -1.3801954271821498e-01  -1.3762658820253873e-01  -1.4051491685657666e-01  -1.3056704106987441e-01  -1.2750240920471270e-01  -1.2062795703232886e-01  -1.2355387132902318e-01  -1.2664058447788407e-01  -1.1307796620856554e-01  -1.1885132252184386e-01  -1.1658700900454265e-01  -1.1422279455163892e-01  -1.0910603017755896e-01  -1.0739390191134872e-01  -1.0038876857206895e-01  -9.4621104398977779e-02  -9.7514610823453002e-02  -8.9986352708408948e-02  -1.0223543591495006e-01  -9.7524889191819661e-02  -1.0844532123833289e-01  -9.7717854358145437e-02  -8.9658622882352643e-02  -9.3555478709348522e-02  -1.1641836188268492e-01  -9.0874938866077296e-02  -9.7304001133848836e-02  -7.8093624547611221e-02  -1.0252203453572389e-01  -9.9456406443308012e-02  -8.6999562461956184e-02  -1.0483927340170182e-01  -8.3753030687852781e-02  -8.5257530490997116e-02  -8.7975036365829290e-02  -8.3751235465243129e-02  -8.1962391517332894e-02  -1.0397836169056641e-01  -8.9804380046839813e-02  -1.0001994487603295e-01  -1.0582472639420029e-01  -1.0965608736005428e-01  -1.02