<?xml version="1.0"?>
<VTKFile type="UnstructuredGrid"  version="0.1"  >
<UnstructuredGrid>
<Piece  NumberOfPoints="1277" NumberOfCells="2456">
<Points>
<DataArray  type="Float64"  NumberOfComponents="3"  format="ascii">0 0 0  0 1 0  1 1 0  1 0 0  1.1 -0.1 0  -0.1 -0.1 0  1.1 1.1 0  -0.1 1.1 0  0.5069521439166963 0.5048565313574126 0  0.639564374514262 0.7185923043545401 0  0 0.9499999999997918 0  0 0.8999999999995836 0  0 0.8499999999996529 0  0 0.7999999999999998 0  0 0.7500000000003466 0  0 0.7000000000006934 0  0 0.6500000000010401 0  0 0.6000000000013869 0  0 0.5500000000017335 0  0 0.5000000000020587 0  0 0.4500000000018723 0  0 0.4000000000016644 0  0 0.3500000000014564 0  0 0.3000000000012483 0  0 0.2500000000010403 0  0 0.2000000000008322 0  0 0.1500000000006241 0  0 0.100000000000416 0  0 0.05000000000020799 0  0.04999999999989965 0 0  0.09999999999981467 0 0  0.1499999999997036 0 0  0.1999999999995579 0 0  0.2499999999994121 0 0  0.2999999999992664 0 0  0.3499999999991206 0 0  0.3999999999989749 0 0  0.4499999999988292 0 0  0.4999999999986943 0 0  0.5499999999988151 0 0  0.5999999999989468 0 0  0.6499999999990784 0 0  0.69999999999921 0 0  0.7499999999993417 0 0  0.7999999999994734 0 0  0.8499999999996051 0 0  0.8999999999997368 0 0  0.9499999999998684 0 0  1 0.04999999999989965 0  1 0.09999999999981467 0  1 0.1499999999997036 0  1 0.1999999999995579 0  1 0.2499999999994121 0  1 0.2999999999992664 0  1 0.3499999999991206 0  1 0.3999999999989749 0  1 0.4499999999988292 0  1 0.4999999999986943 0  1 0.5499999999988151 0  1 0.5999999999989468 0  1 0.6499999999990784 0  1 0.69999999999921 0  1 0.7499999999993417 0  1 0.7999999999994734 0  1 0.8499999999996051 0  1 0.8999999999997368 0  1 0.9499999999998684 0  0.9499999999997918 1 0  0.8999999999995836 1 0  0.8499999999996529 1 0  0.7999999999999998 1 0  0.7500000000003466 1 0  0.7000000000006934 1 0  0.6500000000010401 1 0  0.6000000000013869 1 0  0.5500000000017335 1 0  0.5000000000020587 1 0  0.4500000000018723 1 0  0.4000000000016644 1 0  0.3500000000014564 1 0  0.3000000000012483 1 0  0.2500000000010403 1 0  0.2000000000008322 1 0  0.1500000000006241 1 0  0.100000000000416 1 0  0.05000000000020799 1 0  -0.1 1.05000000000004 0  -0.1 1.000000000000079 0  -0.1 0.9500000000001624 0  -0.1 0.9000000000003032 0  -0.1 0.850000000000444 0  -0.1 0.8000000000005848 0  -0.1 0.7500000000007256 0  -0.1 0.7000000000008665 0  -0.1 0.6500000000010508 0  -0.1 0.6000000000012352 0  -0.1 0.5500000000014196 0  -0.1 0.500000000001539 0  -0.1 0.4500000000014195 0  -0.1 0.4000000000013 0  -0.1 0.3500000000011588 0  -0.1 0.3000000000010178 0  -0.1 0.2500000000008986 0  -0.1 0.2000000000007579 0  -0.1 0.1500000000006174 0  -0.1 0.1000000000005272 0  -0.1 0.05000000000040083 0  -0.1 2.671196597248127e-13 0  -0.1 -0.0499999999998666 0  -0.0500000000000906 -0.1 0  -1.730560139634463e-13 -0.1 0  0.04999999999975802 -0.1 0  0.09999999999961506 -0.1 0  0.1499999999994613 -0.1 0  0.199999999999302 -0.1 0  0.2499999999991446 -0.1 0  0.2999999999990088 -0.1 0  0.3499999999988296 -0.1 0  0.3999999999986936 -0.1 0  0.4499999999985143 -0.1 0  0.4999999999984002 -0.1 0  0.5499999999985247 -0.1 0  0.5999999999986493 -0.1 0  0.6499999999987955 -0.1 0  0.6999999999989417 -0.1 0  0.7499999999990659 -0.1 0  0.7999999999992116 -0.1 0  0.8499999999993573 -0.1 0  0.8999999999994526 -0.1 0  0.949999999999584 -0.1 0  0.9999999999997226 -0.1 0  1.049999999999861 -0.1 0  1.1 -0.0500000000000906 0  1.1 -1.730560139634463e-13 0  1.1 0.04999999999975802 0  1.1 0.09999999999961506 0  1.1 0.1499999999994613 0  1.1 0.199999999999302 0  1.1 0.2499999999991446 0  1.1 0.2999999999990088 0  1.1 0.3499999999988296 0  1.1 0.3999999999986936 0  1.1 0.4499999999985143 0  1.1 0.4999999999984002 0  1.1 0.5499999999985247 0  1.1 0.5999999999986493 0  1.1 0.6499999999987955 0  1.1 0.6999999999989417 0  1.1 0.7499999999990659 0  1.1 0.7999999999992116 0  1.1 0.8499999999993573 0  1.1 0.8999999999994526 0  1.1 0.949999999999584 0  1.1 0.9999999999997226 0  1.1 1.049999999999861 0  1.05000000000004 1.1 0  1.000000000000079 1.1 0  0.9500000000001624 1.1 0  0.9000000000003032 1.1 0  0.850000000000444 1.1 0  0.8000000000005848 1.1 0  0.7500000000007256 1.1 0  0.7000000000008665 1.1 0  0.6500000000010508 1.1 0  0.6000000000012352 1.1 0  0.5500000000014196 1.1 0  0.500000000001539 1.1 0  0.4500000000014195 1.1 0  0.4000000000013 1.1 0  0.3500000000011588 1.1 0  0.3000000000010178 1.1 0  0.2500000000008986 1.1 0  0.2000000000007579 1.1 0  0.1500000000006174 1.1 0  0.1000000000005272 1.1 0  0.05000000000040083 1.1 0  2.671196597248127e-13 1.1 0  -0.0499999999998666 1.1 0  0.6654619960414713 0.7122091929241197 0  0.6896306496372631 0.7037998605194318 0  0.7117500505045795 0.6926771307942757 0  0.7310367481261613 0.6785167025729338 0  0.7480197725349481 0.6620319820417596 0  0.7624693373153562 0.642862219786554 0  0.7746645073420853 0.6216386471558512 0  0.7842066613803008 0.5985586941319185 0  0.7914795079468588 0.5741849858631807 0  0.7966928928096966 0.5488951899245417 0  0.7997217099099156 0.5233856357535913 0  0.8007970633066487 0.4976705425527302 0  0.7999856435114926 0.4720565717040863 0  0.7969696381740564 0.4466900643718523 0  0.7917244722390442 0.4223201570488238 0  0.784861831073809 0.3989271975546077 0  0.7755621929712258 0.3770719886323988 0  0.7639846859166407 0.3571244153720309 0  0.7503092344541011 0.3392531987969377 0  0.7343959395415435 0.3237585847827534 0  0.7162744539970494 0.3095397085963959 0  0.6945755551739373 0.2983056754238669 0  0.6700008638609318 0.2893460031835359 0  0.6432656457903534 0.2832676976108566 0  0.6147910955191774 0.2794720868450961 0  0.5854627601479743 0.2773211149640892 0  0.5546091623170207 0.2761568086823118 0  0.5235863543981968 0.2758808827986193 0  0.4927613996062803 0.275912090973494 0  0.4618136476027874 0.2760079757239419 0  0.4311531221269491 0.2761404867019989 0  0.4008075872389371 0.2772700690140909 0  0.3728699686792743 0.2798723974040367 0  0.3472654672653617 0.2845872013396217 0  0.3234339204727242 0.2910453167284028 0  0.3030378976138738 0.2993981200244956 0  0.2848668016458876 0.309451486436824 0  0.2686229432785529 0.3211769790432456 0  0.2542080042153533 0.3347817379124621 0  0.2414725667517135 0.3504881733383203 0  0.2304103544786871 0.3681610982131422 0  0.2203922658092713 0.3888691471145967 0  0.2117043743883248 0.4124327150627681 0  0.2051987240380202 0.4386980826022362 0  0.2012283939371868 0.4665348149511838 0  0.1993258859864423 0.4944846909979592 0  0.1993667007481217 0.5233336789781972 0  0.2025601884591365 0.551404518193192 0  0.2080102613057076 0.5789174109282228 0  0.2165823072584345 0.6051182174770364 0  0.2277327449551883 0.6276016256928003 0  0.2402098469172603 0.6470051582916663 0  0.2536806944392208 0.6631745868507133 0  0.2682376395512088 0.6769887792691638 0  0.284343714882581 0.6889435495028979 0  0.3025449651013254 0.6994667847587663 0  0.3232416962441865 0.7082940566731796 0  0.3463829183907228 0.7149986392682451 0  0.371821756333592 0.719673038369678 0  0.4000070512684613 0.7219119769891981 0  0.4292439473043801 0.7235980973054951 0  0.459590356040197 0.7242761803247866 0  0.4903426873507629 0.7245284036092141 0  0.5212919240576733 0.7248485605782954 0  0.5521627267418602 0.725286589299745 0  0.5831130373243584 0.7254234107388431 0  0.6123394469143798 0.7229827514002771 0  0.2623387820444715 0.633402273193585 0  0.2445701092684716 0.3984361411742536 0  0.7481003639100164 0.623645309197535 0  0.7758099274434969 0.5339208929135941 0  0.6432782227679765 0.697581964115203 0  0.6218747677676778 0.2983142973560194 0  0.723563647775605 0.3454088080361509 0  0.513365377747675 0.2925853200785289 0  0.2823589808717373 0.3490794367248764 0  0.3302300534205103 0.3146221894256002 0  0.4308853697772756 0.3002899617715288 0  0.3093015309557123 0.6734581391497431 0  0.3709728030369428 0.696483580005569 0  0.4511672638546017 0.7035998381744557 0  0.5375681490032572 0.7068496175224868 0  0.7649850186968938 0.4182870128322744 0  0.2212684704098947 0.5552737043306147 0  0.2210427709949923 0.4649733662269981 0  0.7075117880446398 0.669510832793056 0  0.3751175612005396 0.3027618248774501 0  0.774141224344353 0.464633517598459 0  0.5935943101654244 0.705422926446356 0  0.7658318903035231 0.5783721662006287 0  0.7475029646205366 0.3786856009227089 0  0.6895964629481635 0.3185597209678952 0  0.5729289472225003 0.2916744488144742 0  0.2374998512297506 0.5995801868711129 0  0.2140919202531644 0.5079742037254691 0  0.4805010425476787 0.7050079288981151 0  0.4733906254115865 0.6836200214313222 0  0.4438208046896148 0.6818042585590542 0  0.4662046393782895 0.6611042130912707 0  0.4347090111571859 0.6587954630291425 0  0.453115906735389 0.6404606285782618 0  0.4802790946123304 0.6355120538000016 0  0.4263900332943423 0.6339492769558219 0  0.4505968378547175 0.6076876468107664 0  0.4084690809445168 0.6052360462651264 0  0.5008592237526079 0.6007348455790504 0  0.5424064850889363 0.6293359449749388 0  0.5493611438995302 0.5825168182351192 0  0.5851407118986406 0.6162874471724938 0  0.5964138372538509 0.5694284311803814 0  0.630407216948713 0.6026782291566875 0  0.6429002354669497 0.555449164887997 0  0.6780671254962818 0.5839986440567094 0  0.6908732634631446 0.5472925906799145 0  0.6563253162099191 0.5198907555450849 0  0.6975049721098454 0.51657001811877 0  0.6759610618533477 0.4862607814281064 0  0.6273214200357533 0.4945747773302184 0  0.6415663453002522 0.4587931056123574 0  0.6893097614217206 0.4462132521830109 0  0.660357410274492 0.4196850615269355 0  0.611317928869102 0.4304090287607021 0  0.6266938168626465 0.3965523727275093 0  0.5809523119813946 0.40265543930869 0  0.6001697811323907 0.3681194198418834 0  0.5489160015780071 0.3693359153263518 0  0.5351307418989947 0.4058910761407719 0  0.5008727149243176 0.3700100893416496 0  0.4874026907739175 0.4094930089080304 0  0.4518853585603479 0.3717202388903845 0  0.439771073564769 0.4113456616504056 0  0.6635590246970452
[...]
<PointData  Scalars="u"> 
<DataArray  type="Float64"  Name="u"  format="ascii">-3.8318976356070886e-18  -3.6717447193837509e-18  -2.9990558291106243e-17  6.1548392807650111e-19  -3.0956257206780374e-21  3.4206612598745141e-19  1.0995464839879227e-20  2.7941164383819326e-19  1.3197070020888052e-01  -6.4844399812594100e-02  -1.2243535938422544e-17  -2.7017033158054083e-17  2.4374522415448916e-17  -7.9364696493640160e-19  -2.3987833704915448e-17  -2.6534333912940929e-17  -4.9192520009049572e-17  3.9948441059375544e-17  -1.3916883790871096e-17  -3.4588798806683507e-17  1.6472875324743731e-17  -1.8046440650209001e-17  -4.8397942144234192e-17  4.3842419251221761e-17  3.2887726614139648e-18  -3.0784656900299143e-17  1.2078126195874861e-18  -3.3516838769244585e-17  3.9751703206049098e-17  -2.0417324181614689e-17  -2.1880098933170043e-17  -1.6396959643397219e-17  -5.3695988369439710e-17  -8.9076417101494999e-18  -2.3257367242406510e-17  4.7098484198573248e-17  -5.0252453077724927e-17  -5.4827203818802889e-17  6.7531515466872285e-17  -1.2631220090573735e-16  -1.1961834641161890e-16  -7.1683020314957227e-17  -1.8063356828498265e-17  -1.9232948546929327e-17  -7.1960331689521044e-17  -3.5009939777463022e-17  -1.5608685904221806e-17  -2.2893881546608220e-18  2.0686762716155238e-17  3.6993772419845886e-17  1.5829088325614973e-18  -1.8284353759410914e-16  1.7663996799359481e-16  2.0795651168499135e-17  -1.6301477176950283e-16  -1.8610405835394546e-17  1.4849643083198714e-16  -1.3929387692438179e-16  -4.2030534724944734e-16  -6.0698798137771756e-17  1.4215688816966633e-16  1.1877352627121246e-16  -3.3543030796874526e-17  1.5969133282955174e-16  2.2276907524440409e-17  1.2851758620502302e-17  -8.2562444005615273e-17  -6.4986724823480642e-18  -3.6554377168926718e-17  -7.8176196340107997e-17  1.5479604495317380e-16  1.6470904067154874e-17  -3.7838608472123740e-17  2.1534860604958297e-17  -2.4656908589541432e-16  6.9545416808987962e-17  2.3048614111789003e-16  -1.0118343017840645e-16  6.6104482087350125e-17  3.4447556801272097e-16  3.0135691162898105e-16  -1.7702835872496729e-16  7.2451371082067918e-17  -2.7718382357252142e-17  4.3969776909304029e-17  8.4661983940238964e-17  -8.8060529846635368e-20  4.0654907183096912e-20  -3.5167972219179013e-18  -3.4295288711646909e-18  2.4656388500108821e-18  1.6821438911879447e-19  -3.5673330465624860e-18  -6.7954677937945743e-18  -2.8266768036843057e-18  3.5833750578043941e-18  -4.7120427347623340e-19  -4.4632623720193419e-18  7.3946044991222105e-20  -2.4658273320310700e-18  -4.2622148876299225e-18  1.3902707220953126e-18  1.3479956986164325e-18  -2.0102111014314736e-18  -2.4639161785324562e-18  -1.2848266379492298e-18  1.5991570549008338e-18  1.6940479428650684e-18  -9.3799295364506727e-19  1.5162516342655676e-19  -7.1067765280709918e-19  -2.2059817852007498e-18  -4.5303461564657284e-18  -4.6268673556270783e-18  -5.3829533178542343e-18  -4.0658966187860452e-18  9.2683756804120938e-19  2.9428191769619111e-18  -6.9195167549884143e-18  -3.2870671827824394e-18  -7.5890918115136040e-19  -1.4140501699383498e-17  -1.8650112503676745e-17  -1.0652075252324499e-17  1.7377619184347562e-19  -7.4611112210974526e-19  -9.3920313581153696e-18  -6.2639118027021010e-18  -1.6636509766639534e-18  -2.3401357767547404e-19  5.9836399736816163e-20  2.9551085779830242e-20  -1.0730363083087344e-19  4.6087194055112294e-19  -4.7358127529160114e-19  -1.0241252895073835e-18  -2.4185311140375111e-18  -3.0502290983385194e-18  3.4854376109582661e-18  -1.2501551328544660e-19  -5.8718112527777219e-18  -4.5614369602203167e-18  -3.5180341703749077e-18  -3.5406196733257848e-18  -6.8656580554483529e-18  -5.5684231256355508e-18  4.0379069045288542e-18  6.4121239387975810e-19  -4.7731092317508594e-18  7.9003232855230718e-20  2.5068134712353280e-18  1.7146997748066245e-18  -1.3778195887943680e-18  -8.3529818280661852e-19  1.5156114900195139e-19  -1.2661259811403937e-19  5.0526613880007989e-19  -1.0127106722840167e-18  -3.1927361045232226e-18  -7.8243323964320013e-18  -2.4810062275171258e-18  1.4524279751542812e-19  -8.5235618995519475e-19  2.1264116359519667e-18  -3.6347083439427349e-18  -4.8723638707635328e-18  1.2867015837808911e-18  -1.5810848710745384e-19  -5.0266703310350962e-18  1.6337396768283906e-18  4.7819515105580268e-18  -3.2534633092617726e-18  -3.3028857441191879e-18  -4.8136730989360760e-18  -3.4819460312730808e-18  8.8923139211381941e-19  9.4568680461557203e-19  -5.8481833490391065e-19  -6.8791906138839801e-02  -7.1746451742243283e-02  -7.3372323426174613e-02  -7.2614759835671283e-02  -7.0268324941387170e-02  -6.6473567500990233e-02  -6.1969121384160039e-02  -5.7048163941279165e-02  -5.2512570549084821e-02  -4.9082894670744094e-02  -4.6976753486052347e-02  -4.6404327883240525e-02  -4.7472099703489097e-02  -4.9858566759799432e-02  -5.3334357037989971e-02  -5.7945388813646366e-02  -6.2677450101356502e-02  -6.6929815071468626e-02  -7.0471173666017073e-02  -7.2691284314058816e-02  -7.3786926926402596e-02  -7.2515217862372888e-02  -6.9562467807229036e-02  -6.5108160951397653e-02  -5.9925678780817879e-02  -5.5014503443769458e-02  -5.1051392158424747e-02  -4.8457734570970634e-02  -4.7853931767813378e-02  -4.9272118258426673e-02  -5.2807468503981936e-02  -5.7740172647343796e-02  -6.2754788131291664e-02  -6.6996168765603353e-02  -7.0769032195449444e-02  -7.2583355958120863e-02  -7.3516875787488514e-02  -7.2980348992925367e-02  -7.1221506830017295e-02  -6.8146909056074928e-02  -6.4194773929925286e-02  -5.9628363553283451e-02  -5.4945756246220001e-02  -5.0707918773747113e-02  -4.7581302067397399e-02  -4.6249738252926616e-02  -4.7452831306491021e-02  -4.9921228563007521e-02  -5.3865952018003593e-02  -5.9109732828575692e-02  -6.3614908062692516e-02  -6.7540002659777026e-02  -7.0372170520694083e-02  -7.2167859115830402e-02  -7.2870471779766036e-02  -7.2475753046959551e-02  -7.0520587124721895e-02  -6.7195514401338780e-02  -6.2711905867170695e-02  -5.7116654710754278e-02  -5.2687595251017190e-02  -4.9275444442625771e-02  -4.7636954883802436e-02  -4.8141988831814579e-02  -5.1136381350471077e-02  -5.6100429618622757e-02  -6.0704545589061513e-02  -2.3644859792355769e-02  -1.7423915856275122e-02  -2.4603539687412662e-02  -1.0120525079028993e-02  -2.3984235642593603e-02  -2.0803282693883037e-02  -2.9102088331238868e-02  -6.4852963101314741e-03  -2.2727265348332189e-02  -2.4604067036269554e-02  -4.4054224382264967e-03  -2.5173954610767990e-02  -1.7974419575495851e-02  -4.8910323745429930e-03  -6.6627122981773000e-03  -1.5272869213006038e-02  -1.6932636461926751e-02  -1.2748609959718119e-02  -3.1121611823914777e-02  -1.7120618335560719e-02  -8.8607595675980668e-03  -1.5263521019486158e-02  -1.4921538805698187e-02  -2.2507473418158740e-02  -3.1286855875850623e-02  -1.4516862318576363e-02  -2.1654752103949130e-02  -1.5366861459431246e-02  -3.5513826572760115e-03  1.9312701013820051e-02  1.7498458338833005e-02  4.2819516175002362e-02  4.0159182536299395e-02  6.2426393546494104e-02  7.0646606265511877e-02  6.3356988004547241e-02  8.9426859534324943e-02  8.0654192129663502e-02  9.8592382616820254e-02  7.4330437590947943e-02  1.0527618219036473e-01  7.5453908954006499e-02  9.9505805349160009e-02  6.7933165917394803e-02  8.4671137344732028e-02  5.2606702964221146e-02  5.8387937611063645e-02  8.5479257855498314e-02  5.9507242488980566e-02  7.4508230542164072e-02  1.0178647452735110e-01  8.9644687876210952e-02  5.7635179343439230e-02  6.4607341122836115e-02  9.3273483250764969e-02  6.8397098833790609e-02  8.8750798423604366e-02  5.7610457435133017e-02  7.1626492859545102e-02  9.9909001983563769e-02  7.6265926951494131e-02  1.0408677676679495e-01  7.3977025682087749e-02  9.9236904584375479e-02  3.8980188856320583e-02  6.5185360918787516e-02  8.2771020783247995e-02  4.2214079649268578e-02  5.7088427030663039e-02  6.4870957020731007e-02  9.6967919377952613e-02  8.1086170706419033e-02  1.0112849848137137e-01  8.2033880121493402e-02  6.2876943184029796e-02  6.2178132905784562e-02  7.2396030911611231e-02  5.0808774405533420e-02  5.4029019436436482e-02  3.9997773478831433e-02  1.1367612633556462e-01  7.3830314376073944e-02  4.9641153750817513e-02  1.1636664885862767e-01  3.8576038439584195e-02  2.7886362281759228e-02  1.8806875653411579e-02  2.1552028178083917e-02  4.8488385817688696e-02  3.7414342682419381e-02  5.4288816288788594e-02  4.7164417593957259e-02  1.6057710794494397e-02  6.6659970222687673e-02  3.1952810153190868e-02  3.7216931130643734e-02  2.9283657440072320e-02  2.8894043407528866e-02  1.2659136342533923e-02  1.3211084484003313e-02  3.2528002218992165e-02  1.5485603667337387e-02  4.6932894865529623e-02  2.2907147451747895e-02  2.7468216678292211e-02  1.8952252847361368e-02  2.7982787384445613e-02  9.0883202749138699e-03  1.1316450213008147e-01  4.3170244968386853e-02  1.4360300718223494e-02  1.5396495984130072e-02  8.7714006930974531e-03  2.7570152284187757e-02  1.7746060173217802e-02  2.6065698653499069e-02  4.9808064789384078e-02  2.8643074688974684e-02  2.1190498986663617e-02  6.9520871351090438e-03  8.8200633632212547e-03  1.4482141374510217e-02  2.3271753537540279e-02  -1.0942577951212330e-02  5.4281848116787837e-02  1.5999021734938140e-02  3.5718092575390499e-02  4.0810133410706341e-03  2.1074468544427863e-03  4.5398759321839670e-02  2.6398875585063767e-02  1.5110353152030584e-02  7.7254959038719545e-03  7.8841579049997793e-03  4.7338576917419550e-02  2.5164584062166151e-02  1.2105785394142057e-01  2.7712938569873911e-02  3.4091299509719224e-02  1.1913357103673276e-02  3.8824766078444321e-03  3.5516719999396686e-02  1.1199557174961516e-01  1.6580968040866748e-03  4.0791565978435515e-02  1.4456918665404989e-02  4.3488829755382492e-02  1.2240007177772708e-01  -7.0995548128452847e-04  -1.7324953709128604e-02  1.1105361393513383e-01  9.2751017067971883e-02  9.0278362534451012e-02  -1.3758860480414156e-02  -8.4461476257148109e-03  -4.0838846352547162e-04  -2.0476098491017548e-02  -6.9707762845632659e-03  -2.5845041653014968e-02  -1.9309243913158719e-02  -9.2839325221111164e-03  -6.8843321736402965e-03  1.5746913583066180e-02  2.1789050772255027e-04  -2.1240813509455878e-02  -2.1238397018429446e-03  -2.9297991694410167e-02  -1.3867468725212514e-02  -5.7889290876368986e-03  8.7590373131396226e-03  3.2558231710123425e-02  -2.6743398060173125e-02  8.8042499562324770e-03  -2.1086784135732423e-02  2.4585738268087143e-03  -9.5080562666370865e-03  1.1098642809969752e-02  -1.1199716168613684e-02  -9.5097137447759956e-03  -1.3168124638383925e-02  -1.3368130461497089e-02  -2.9755909675732130e-02  -1.7335656076858771e-02  -2.3154753825143391e-02  1.0435268452384964e-02  -5.0843938995097761e-03  -1.1286008182818965e-02  -2.6767109564211803e-02  -1.6120262182282206e-02  8.0076997664121647e-03  -1.3240665264879950e-02  -4.0426333947341971e-03  -9.5296580425930037e-03  1.0633016858612997e-01  -8.8733682595522872e-03  -1.9432273040960065e-02  -5.9937040893371157e-03  4.2389403204190386e-02  1.1448498030773670e-02  -1.4136461458712289e-03  1.1129161209111553e-01  1.2300677640315046e-01  1.2793900577182787e-01  -3.0457517960131894e-02  4.2814803549208009e-03  -3.2703683420327465e-02  6.0064455802500511e-03  -3.0778012040924174e-02  -2.0063282633207332e-02  1.2584095276138643e-01  4.7764852141270143e-03  4.9129453341338310e-03  -1.7877745531855699e-02  1.2274234961968453e-01  6.0355878374082992e-03  1.0391837467541486e-02  -6.5991841040318753e-03  -4.4175500562290102e-04  7.3130146644526384e-03  3.8767900842817983e-02  -3.2320346535904453e-02  8.7224465350883556e-03  1.1668796103167153e-01  3.8252219832970738e-02  -2.6870860964806995e-02  -1.7619136932839553e-02  3.1811015623713267e-02  -1.1679816754421627e-02  4.9615844626371515e-03  6.9258250029677101e-02  7.2468079191190127e-03  -1.4638302360831832e-02  -1.1889297003428829e-03  2.3941418874237883e-03  1.0845998852151985e-01  1.6922758557459228e-02  -2.5739895181655807e-02  -6.8912505833867562e-03  4.4993171421873986e-02  2.9651048248949409e-02  6.6465346406809983e-02  1.0195129234357961e-02  -6.1142976163093832e-03  1.8779581235984790e-03  4.0362524735143707e-03  1.9552355691956912e-02  -4.7884022249539077e-03  2.3962615690179795e-02  2.9676732212810517e-02  4.6910303920880032e-02  5.3093756441918695e-02  2.8781163553475875e-02  -3.1091629174937005e-02  -6.6868053549926513e-03  5.1850032995059969e-03  2.9334457851571009e-02  1.1345494401044794e-02  -5.8794734165506018e-03  4.6003983503614933e-02  2.8449833730988687e-02  5.0928224779309805e-02  3.9214547919957328e-02  1.0430810960742134e-02  2.9254300692518265e-02  -2.1891412131921202e-02  1.9711477873800586e-02  9.8570860627628806e-02  2.3613474365003311e-02  2.9052864612759938e-02  4.5128400366748471e-02  -1.7781007629378450e-02  4.5125880812044217e-02  1.2509573934488843e-01  4.1025395815403584e-02  5.4712274660150065e-03  5.5032712339503916e-02  5.1448582033939920e-02  3.7904479172477801e-02  -5.8875305523436875e-03  3.3742999048717991e-02  -1.0639446571419787e-03  3.4704550114251727e-02  -9.8874357435269053e-02  -9.8036931158627605e-02  -9.9142396575108940e-02  -9.8981819653596065e-02  -9.3195032304097591e-02  -9.4252621826121000e-02  -9.5063476549701070e-02  -9.6564966642416913e-02  -9.0090303476360406e-02  -8.1818712195695351e-02  -8.9096194213559049e-02  -8.9427289513345262e-02  -8.3037620762349842e-02  -9.7764480714964450e-02  -7.8624231314327317e-02  -4.9975345440564430e-02  -3.9112834254203865e-02  -3.9233168585733565e-02  -8.2701464549576470e-02  -4.5635439585138562e-02  -4.2563880546181258e-02  -8.9661138460768119e-02  -8.0509167601615958e-02  -7.4288872080738935e-02  -4.8590323039079494e-02  -7.0025286881837998e-02  -4.5052997726306498e-02  -7.6682835741349875e-02  -5.8987895180997715e-02  -8.8760498797393991e-02  -8.0470008540572555e-02  -7.5554960068806937e-02  -5.3656449579520593e-02  -6.0012156590914419e-02  -6.9059176387450266e-02  -5.7769814487072579e-02  -6.1333164978605866e-02  -2.8443845646418772e-02  -4.0132327690012549e-02  -3.5848774239348492e-02  -7.6478513708919671e-02  -5.8473493205437994e-02  -6.6707618440091127e-02  -7.0280437934043968e-02  -7.3003985965291618e-02  -2.1881680243571854e-02  -2.1677926403421970e-02  -7.1113063696195203e-02  -7.8453947507120717e-02  -5.5598405271923883e-02  -4.2536268118660507e-02  -4.0312501828357467e-02  -4.8692257934393274e-02  -3.9651593507185195e-02  -4.4133796611678960e-02  -4.8415978031461526e-02  -3.9766656422257192e-02  -3.5567054791150250e-02  -2.9518440228333921e-02  -2.7687248650297886e-02  -7.0978015756010454e-02  -7.5670206596277045e-02  -7.6680167253653106e-02  -7.9527876057247093e-02  -8.0278160850880034e-02  -7.9708153322506109e-02  -7.7202671582471627e-02  -7.9226816769398911e-02  -7.9932592925536117e-02  -8.2390264752859585e-02  -7.4552523662811468e-02  -9.5137138036307856e-02  -1.0714879385780104e-01  -1.0966448529773733e-01  -1.2026672044266201e-01  -1.2272798097212394e-01  -1.1759538730288822e-01  -1.3166359801235600e-01  -1.3291611974613918e-01  -1.3809752585274426e-01  -1.3903427560342965e-01  -1.3433267916576827e-01  -1.3682690311675802e-01  -1.3166613843648628e-01  -1.3634835928166197e-01  -1.3001360775901716e-01  -1.2419007665452235e-01  -1.1672292920216100e-01  -1.1702371626098264e-01  -1.1079464669795806e-01  -1.1524089442390817e-01  -1.0317483985657329e-01  -1.0525901305638602e-01  -9.5433436125710466e-02  -1.3541336494083592e-01  -1.3504464475819372e-01  -9.5780130210489547e-02  -8.9309950356871892e-02  -9.6086123534470783e-02  -1.3155107778563865e-01  -8.0439021270824584e-02  -1.2585488278160670e-01  -1.1027555583322604e-01  -7.5222231097455280e-02  -8.2832739173459471e-02  -7.2482156734257064e-02  -7.9525064386822789e-02  -7.2220008140586711e-02  -7.9209060787084909e-02  -7.4393777546902087e-02  -8.1498175400560410e-02  -7.7704921969219395e-02  -8.6134175851104416e-02  -8.3289630258957470e-02  -9.3740067549893488e-02  -9.0250298039062246e-02  -1.0215476385236157e-01  -9.7617510814278552e-02  -1.1171498308424542e-01  -1.0495155121824946e-01  -1.2040055839061004e-01  -1.1052500165351917e-01  -1.2623129826930662e-01  -1.2923430798486632e-01  -1.3527360120731780e-01  -1.2803612782086651e-01  -1.3532997445941142e-01  -1.3883370363322997e-01  -1.3711769804839383e-01  -1.3863326514563662e-01  -1.2337254722135305e-01  -1.3480830267785163e-01  -1.3600731671769850e-01  -1.2625028949827544e-01  -1.1008055522942083e-01  -1.0347246691624187e-01  -1.2893598353451435e-01  -1.3152688435067331e-01  -1.3196534768840015e-01  -1.2872220931391093e-01  -1.2453731478397692e-01  -1.2692686716189883e-01  -1.2320733717661715e-01  -1.2142545134491502e-01  -1.2141733231322564e-01  -1.1428457114986042e-01  -1.1426456155233490e-01  -1.1916072020996411e-01  -1.1730674059527797e-01  -1.1606783327703617e-01  -1.1879540704532171e-01  -1.1190883408159184e-01  -1.1764990507378600e-01  -1.1882506463394001e-01  -1.2214839060050942e-01  -1.1668304691073061e-01  -1.2445822722146363e-01  -1.2266511294328303e-01  -1.2892164297948336e-01  -1.2444014002414412e-01  -1.3202594279579435e-01  -1.3074907570177782e-01  -1.3628295175398991e-01  -1.3217512563518979e-01  -1.3803702146540325e-01  -1.3676474495417598e-01  -1.3933188273686400e-01  -1.3536683157464235e-01  -1.3593181533972934e-01  -1.3580176303780403e-01  -1.2715771225278749e-01  -1.3081735770114636e-01  -1.2848571948014978e-01  -1.2100600207884427e-01  -1.1816329709000152e-01  -1.2704562915625889e-01  -1.1381596975342011e-01  -1.2109836420316226e-01  -1.0860955192979725e-01  -1.0739038270462210e-01  -1.0747240732893397e-01  -1.0724429693840370e-01  -1.2144130405178374e-01  -1.1164100024573875e-01  -1.0088177183519839e-01  -9.6084934706705996e-02  -5.3946754630892109e-02  -9.7419234325047024e-02  -1.2700689445232394e-01  -1.1200961139316566e-01  -1.1485644733971648e-01  -1.0977328586673084e-01  -1.0416067098042626e-01  -1.1565283356551047e-01  -8.8156621712303249e-02  -9.2013934010261145e-02  -8.6943453298077303e-02  -9.1139229574920960e-02  -8.0543264445190763e-02  -1.0777074088272823e-01  -1.0516368897662817e-01  -1.1349805690221373e-01  -8.3860524084580473e-02  -6.7373737258288935e-02  -1.0166656067754737e-01  -1.0046046347590681e-01  -1.1340709850115056e-01  -1.3173690861028423e-01  -1.2696462350348695e-01  -1.2745744569257053e-01  -1.2142159755964696e-01  -1.2390083216068846e-01  -1.1798071333155057e-01  -1.1834516315087983e-01  -1.2040213046539365e-01  -1.1805363913653508e-01  -1.1609677559848873e-01  -1.1877944281462388e-01  -1.1324124274152710e-01  -1.1600767143682253e-01  -1.1787137932543328e-01  -1.2026867251234823e-01  -1.1226674378339609e-01  -1.1908810301247770e-01  -1.2147902518995091e-01  -1.2538136613412784e-01  -1.1845232296378164e-01  -1.2703211005950779e-01  -1.2771735376999052e-01  -1.3303740645559328e-01  -1.2757084544580616e-01  -1.3500293399413113e-01  -1.3535927984860005e-01  -1.3888803798896149e-01  -1.3385460588908268e-01  -1.3762383839460662e-01  -1.3822878719347220e-01  -1.3578628631414386e-01  -1.3342606266796075e-01  -1.2909638264137915e-01  -1.3002885405951511e-01  -1.2534602004934814e-01  -1.1830221040710229e-01  -1.1474245597908871e-01  -1.2345497477096902e-01  -1.1496723009297763e-01  -1.1588372770653929e-01  -1.1526335419433380e-01  -1.0892856407207344e-01  -1.0466147770263534e-01  -1.0329814099583103e-01  -1.0550995000974277e-01  -9.7916516096430359e-02  -9.4884629799471140e-02  -9.3535955141072880e-02  -8.8620210498158380e-02  -1.0510463927555419e-01  -1.0254494321951768e-01  -1.1312819865071026e-01  -9.9510964586997319e-02  -9.0004698769534763e-02  -8.8356717611817390e-02  -1.1870121008100097e-01  -9.0080642307683617e-02  -9.6959549511582505e-02  -8.3203842249359602e-02  -1.0245736961712631e-01  -9.8350095796461132e-02  -8.9694830266278933e-02  -1.0621957829606136e-01  -8.3275935693002581e-02  -7.8415058872886162e-02  -8.1955665006265582e-02  -7.9420288928761310e-02  -7.7287555312064743e-02  -1.0694142358144144e-01  -8.8702541657808026e-02  -9.8060610531597328e-02  -1.0364238959925011e-01  -1.0817998030012074e-01  -9.9