<?xml version="1.0"?>
<VTKFile type="UnstructuredGrid"  version="0.1"  >
<UnstructuredGrid>
<Piece  NumberOfPoints="1277" NumberOfCells="2456">
<Points>
<DataArray  type="Float64"  NumberOfComponents="3"  format="ascii">0 0 0  0 1 0  1 1 0  1 0 0  1.1 -0.1 0  -0.1 -0.1 0  1.1 1.1 0  -0.1 1.1 0  0.506911478626396 0.5049674898350127 0  0.6391000425005223 0.7190172085594363 0  0 0.9499999999997918 0  0 0.8999999999995836 0  0 0.8499999999996529 0  0 0.7999999999999998 0  0 0.7500000000003466 0  0 0.7000000000006934 0  0 0.6500000000010401 0  0 0.6000000000013869 0  0 0.5500000000017335 0  0 0.5000000000020587 0  0 0.4500000000018723 0  0 0.4000000000016644 0  0 0.3500000000014564 0  0 0.3000000000012483 0  0 0.2500000000010403 0  0 0.2000000000008322 0  0 0.1500000000006241 0  0 0.100000000000416 0  0 0.05000000000020799 0  0.04999999999989965 0 0  0.09999999999981467 0 0  0.1499999999997036 0 0  0.1999999999995579 0 0  0.2499999999994121 0 0  0.2999999999992664 0 0  0.3499999999991206 0 0  0.3999999999989749 0 0  0.4499999999988292 0 0  0.4999999999986943 0 0  0.5499999999988151 0 0  0.5999999999989468 0 0  0.6499999999990784 0 0  0.69999999999921 0 0  0.7499999999993417 0 0  0.7999999999994734 0 0  0.8499999999996051 0 0  0.8999999999997368 0 0  0.9499999999998684 0 0  1 0.04999999999989965 0  1 0.09999999999981467 0  1 0.1499999999997036 0  1 0.1999999999995579 0  1 0.2499999999994121 0  1 0.2999999999992664 0  1 0.3499999999991206 0  1 0.3999999999989749 0  1 0.4499999999988292 0  1 0.4999999999986943 0  1 0.5499999999988151 0  1 0.5999999999989468 0  1 0.6499999999990784 0  1 0.69999999999921 0  1 0.7499999999993417 0  1 0.7999999999994734 0  1 0.8499999999996051 0  1 0.8999999999997368 0  1 0.9499999999998684 0  0.9499999999997918 1 0  0.8999999999995836 1 0  0.8499999999996529 1 0  0.7999999999999998 1 0  0.7500000000003466 1 0  0.7000000000006934 1 0  0.6500000000010401 1 0  0.6000000000013869 1 0  0.5500000000017335 1 0  0.5000000000020587 1 0  0.4500000000018723 1 0  0.4000000000016644 1 0  0.3500000000014564 1 0  0.3000000000012483 1 0  0.2500000000010403 1 0  0.2000000000008322 1 0  0.1500000000006241 1 0  0.100000000000416 1 0  0.05000000000020799 1 0  -0.1 1.05000000000004 0  -0.1 1.000000000000079 0  -0.1 0.9500000000001624 0  -0.1 0.9000000000003032 0  -0.1 0.850000000000444 0  -0.1 0.8000000000005848 0  -0.1 0.7500000000007256 0  -0.1 0.7000000000008665 0  -0.1 0.6500000000010508 0  -0.1 0.6000000000012352 0  -0.1 0.5500000000014196 0  -0.1 0.500000000001539 0  -0.1 0.4500000000014195 0  -0.1 0.4000000000013 0  -0.1 0.3500000000011588 0  -0.1 0.3000000000010178 0  -0.1 0.2500000000008986 0  -0.1 0.2000000000007579 0  -0.1 0.1500000000006174 0  -0.1 0.1000000000005272 0  -0.1 0.05000000000040083 0  -0.1 2.671196597248127e-13 0  -0.1 -0.0499999999998666 0  -0.0500000000000906 -0.1 0  -1.730560139634463e-13 -0.1 0  0.04999999999975802 -0.1 0  0.09999999999961506 -0.1 0  0.1499999999994613 -0.1 0  0.199999999999302 -0.1 0  0.2499999999991446 -0.1 0  0.2999999999990088 -0.1 0  0.3499999999988296 -0.1 0  0.3999999999986936 -0.1 0  0.4499999999985143 -0.1 0  0.4999999999984002 -0.1 0  0.5499999999985247 -0.1 0  0.5999999999986493 -0.1 0  0.6499999999987955 -0.1 0  0.6999999999989417 -0.1 0  0.7499999999990659 -0.1 0  0.7999999999992116 -0.1 0  0.8499999999993573 -0.1 0  0.8999999999994526 -0.1 0  0.949999999999584 -0.1 0  0.9999999999997226 -0.1 0  1.049999999999861 -0.1 0  1.1 -0.0500000000000906 0  1.1 -1.730560139634463e-13 0  1.1 0.04999999999975802 0  1.1 0.09999999999961506 0  1.1 0.1499999999994613 0  1.1 0.199999999999302 0  1.1 0.2499999999991446 0  1.1 0.2999999999990088 0  1.1 0.3499999999988296 0  1.1 0.3999999999986936 0  1.1 0.4499999999985143 0  1.1 0.4999999999984002 0  1.1 0.5499999999985247 0  1.1 0.5999999999986493 0  1.1 0.6499999999987955 0  1.1 0.6999999999989417 0  1.1 0.7499999999990659 0  1.1 0.7999999999992116 0  1.1 0.8499999999993573 0  1.1 0.8999999999994526 0  1.1 0.949999999999584 0  1.1 0.9999999999997226 0  1.1 1.049999999999861 0  1.05000000000004 1.1 0  1.000000000000079 1.1 0  0.9500000000001624 1.1 0  0.9000000000003032 1.1 0  0.850000000000444 1.1 0  0.8000000000005848 1.1 0  0.7500000000007256 1.1 0  0.7000000000008665 1.1 0  0.6500000000010508 1.1 0  0.6000000000012352 1.1 0  0.5500000000014196 1.1 0  0.500000000001539 1.1 0  0.4500000000014195 1.1 0  0.4000000000013 1.1 0  0.3500000000011588 1.1 0  0.3000000000010178 1.1 0  0.2500000000008986 1.1 0  0.2000000000007579 1.1 0  0.1500000000006174 1.1 0  0.1000000000005272 1.1 0  0.05000000000040083 1.1 0  2.671196597248127e-13 1.1 0  -0.0499999999998666 1.1 0  0.6650020797158048 0.7126521440454743 0  0.6892104747332692 0.7042580892155245 0  0.7113964540998405 0.693130738200591 0  0.7307667295179914 0.678937270979837 0  0.7478364585777929 0.6624080622800038 0  0.7623280900779293 0.6431800491475493 0  0.7745333673801027 0.6219091093290605 0  0.7840751636188703 0.5988037564180321 0  0.7913410154629669 0.5744254945563594 0  0.7965477874861426 0.5491546844464603 0  0.7995671383802286 0.5236715295940892 0  0.8006408953829849 0.4979914822095062 0  0.7998238907748701 0.4724176334029668 0  0.7968023481861477 0.4470972666762647 0  0.791536190663911 0.4227579216381049 0  0.7846513139448362 0.399384736746964 0  0.7753194628261151 0.3775327340426963 0  0.7636957062084498 0.3575693918609695 0  0.7499638182300693 0.3396609859506486 0  0.733969647814824 0.3241134632069556 0  0.7157765200505918 0.3098395736634579 0  0.6940338501205562 0.2985505137412526 0  0.669442332316275 0.2895342776670326 0  0.642724087159977 0.2834169730808451 0  0.6143039437533695 0.2795817342885372 0  0.5850357752171955 0.2773835596200295 0  0.5542762882122729 0.2761831958373639 0  0.5233596204696898 0.2758690822114341 0  0.4926402987168783 0.2758531762930704 0  0.4618051004225725 0.2758949153835141 0  0.4312551749031533 0.2759795037813356 0  0.4010165934655462 0.2770600237079419 0  0.3731448839474902 0.2796076047673008 0  0.3475906105107281 0.2842688858503535 0  0.3237789834719468 0.2906731690866199 0  0.3033560614927289 0.2989828652596206 0  0.2851392804678957 0.3090258596666993 0  0.2688450031830895 0.3207809606766296 0  0.2543835469372084 0.3344412992341262 0  0.2416179178093783 0.3502208939765242 0  0.2305361661937519 0.367974531897344 0  0.2205007652534491 0.3887374498948873 0  0.2117873638591762 0.4123216696442984 0  0.2052463895492028 0.438565963867573 0  0.2012312578245878 0.4663651470817174 0  0.1993002252626289 0.4942888075142594 0  0.1993417776685049 0.5230975609364156 0  0.2026184102154231 0.5511439785232388 0  0.2081750168712726 0.5786184442320568 0  0.2168451842170802 0.6047884216611997 0  0.2280956111611452 0.6272926908786313 0  0.2406664020539256 0.6467535910939596 0  0.2542202366383234 0.6630079758681754 0  0.2688528546061381 0.67691596374719 0  0.2850301024748572 0.6889505219711302 0  0.3032804709152554 0.6995294420447667 0  0.323990075983921 0.7083882154161177 0  0.3470956255157197 0.7151272026593388 0  0.372463448315141 0.719847169041809 0  0.400526317807798 0.7221464001839357 0  0.4296318315867473 0.7238945316286188 0  0.4598270897827462 0.7246198854412125 0  0.4904265609209792 0.7249046230262166 0  0.5212240465790922 0.7252416136419509 0  0.5519483346641842 0.7256803683714356 0  0.5827504469996965 0.7258151163331883 0  0.6118977128036447 0.7233927793245526 0  0.2627493350454253 0.6332297305415014 0  0.2446770527505586 0.3982525783188092 0  0.7479414625127141 0.623979285588192 0  0.7756449313945497 0.5342167904706252 0  0.6429087592496542 0.6979821471936756 0  0.621430856733942 0.2984566455855752 0  0.7232005308261618 0.3457451999835504 0  0.5131871085137339 0.2925822055248982 0  0.2825145106290025 0.3487668395639874 0  0.3304596544802536 0.3143116660287709 0  0.4309496474032198 0.3001678631686667 0  0.3098644059355044 0.6734665404199438 0  0.3715077423235639 0.6966054532518822 0  0.4514135415200869 0.7038662535833029 0  0.5374480196644825 0.7071930909604999 0  0.7647644049671407 0.418683846069356 0  0.2213806928750798 0.5550222476204905 0  0.2210804089217924 0.46481154910733 0  0.7072421737489502 0.6699255832392467 0  0.3753142426721461 0.3025370846031463 0  0.7739539982641037 0.4649934499054501 0  0.5932832244077371 0.7057865895323338 0  0.7656766788858901 0.5786600897317992 0  0.7472258360848428 0.3790747848709694 0  0.6891386217890852 0.3188162785915373 0  0.5725775139800435 0.291745022839188 0  0.2377729293662135 0.5993204874496874 0  0.2141047973771707 0.5077704177913593 0  0.4806225439372909 0.705312483834094 0  0.4735246590895117 0.6838621115903323 0  0.4440592846765513 0.6820065528362622 0  0.4663409257729241 0.6612940811305654 0  0.434935104439596 0.6589418183093626 0  0.4532644068976867 0.640603327283624 0  0.4803568768409019 0.6356783890201905 0  0.4265909104931402 0.6340487485268137 0  0.4507108907515943 0.6077898172404936 0  0.4086518777306957 0.6052838691917153 0  0.5008764790048993 0.600890008823457 0  0.5423499632124615 0.6295619738069412 0  0.549302766360629 0.5827153157691775 0  0.5850250142611937 0.6165477435143515 0  0.5963048564114712 0.5696731936144578 0  0.6302573720158369 0.6029782659159176 0  0.6427572505905548 0.5557339927065122 0  0.67790348974653 0.5843245136914633 0  0.6907074844547427 0.5476056687434694 0  0.656167584167116 0.520171436165051 0  0.6973288245711632 0.5168768745889515 0  0.6757785316665587 0.4865476428670057 0  0.6271705704699404 0.4948204222839641 0  0.6413832113643684 0.4590420382792282 0  0.6890944753832887 0.4465063957447693 0  0.6601271040201012 0.4199439038474057 0  0.6111315946172924 0.4306178311456706 0  0.62645658547862 0.3967669248230215 0  0.5807664695582008 0.4028203707897051 0  0.5999179267054728 0.368290811490272 0  0.5487359834008734 0.3694466201603396 0  0.53500032152054 0.4060020630413611 0  0.5007674177495575 0.3700584857599425 0  0.4873316627939753 0.4095427023564828 0  0.4518550454760991 0.3716987162376805 0  0.4397546608073533 0.4113278854088012 0  0.6633774260980332 0.61
[...]
<PointData  Scalars="u"> 
<DataArray  type="Float64"  Name="u"  format="ascii">-1.8754429195628528e-18  -3.2013284817757123e-18  -2.9136517089037459e-17  7.3078159776870241e-19  -2.7959189637254750e-20  2.2720388361737966e-19  -2.8572891606001371e-20  2.8996587844068121e-19  1.3196526907147971e-01  -6.4745241151277333e-02  -8.0066543777541981e-18  -3.2372585740149927e-17  2.3231429828403508e-17  6.3963887844766773e-20  -2.6703770974060474e-17  -3.5953139603212683e-17  -3.6823511616931245e-17  6.8446593635355121e-17  -1.9760035458105804e-17  -3.4570858720072614e-17  1.5798487037754405e-17  -1.7362946525946669e-17  -4.7571437854343230e-17  4.2570224771330995e-17  1.0681191455450634e-17  -3.2476345854800486e-17  2.4146868320847673e-18  -3.8724006512896571e-17  3.3589712915700223e-17  -2.2363241419449211e-17  -2.8264538893321610e-17  -1.4242222576983391e-17  -4.9394703011700602e-17  -1.2264086568948448e-17  -1.9710383704103745e-17  5.5023284651986806e-17  -4.9238641448258209e-17  -5.6871496679787435e-17  7.9237191575674958e-17  -9.9447513287079039e-17  -1.1957987585531281e-16  -8.5055652062505300e-17  -1.8692739972282473e-17  -2.0573282512975639e-17  -7.0665012833807671e-17  -2.5553238749071778e-17  -1.0597516241179442e-17  -4.4334393314316032e-18  2.0122327703868357e-17  3.8446320022300892e-17  3.6864883930241317e-18  -1.7782560955668421e-16  1.6960830900584432e-16  1.7661275192209674e-17  -1.6461052250627286e-16  -1.8209441041530610e-17  1.5323012912836119e-16  -1.3451162673598586e-16  -4.1714551075382262e-16  -6.2340418955690875e-17  1.4383413695083459e-16  1.2253855252172220e-16  -2.7857825660591125e-17  1.5875166084155712e-16  1.6153655168382951e-17  2.0327976017682762e-17  -8.0671518914550959e-17  -6.4217654478731775e-18  -3.2699618297689480e-17  -6.8042947707434369e-17  1.5332467155056004e-16  5.2501763940938803e-18  -2.6454663508945097e-17  1.7780798127839659e-17  -2.4249197964930100e-16  8.6541096913800379e-17  2.3768186267430893e-16  -9.6206914470264288e-17  7.0967702091982359e-17  3.4730554366843896e-16  3.0099803338942733e-16  -1.7583762269899324e-16  7.5503153536495381e-17  -1.4924799511682465e-17  4.6221873767496661e-17  8.7131645013643162e-17  -1.4274281090949041e-19  2.2600476514547806e-19  -3.0340665431531552e-18  -3.5517123050031085e-18  2.0464548716180221e-18  4.6733491762964689e-19  -4.1939483326494844e-18  -7.8877304479081862e-18  -6.9498573972757740e-19  7.0710775359128822e-18  -4.1665518026010596e-19  -4.9579941640611335e-18  4.3218506932098694e-20  -1.9301464528885260e-18  -3.9807248267666406e-18  1.4245756994990167e-18  2.0501239979907965e-18  -2.0470474305152963e-18  -2.7173446041118736e-18  -1.8847220784107973e-18  8.3749924599807786e-19  1.7868182392611941e-18  -8.2146357226015785e-19  1.9365353369046790e-19  -4.5653280696921704e-19  -2.6637805526261913e-18  -4.8599919273953666e-18  -4.1594961876384392e-18  -5.0210390890834173e-18  -4.3021170002500109e-18  1.5366058706461174e-18  3.9591080691452229e-18  -6.7552586648922693e-18  -3.5502555472109066e-18  1.3236616760534964e-18  -1.0802293875887842e-17  -1.8439308155691079e-17  -1.1989198551886980e-17  -9.5576905513911591e-19  -1.9705455342809272e-18  -8.7513955390929507e-18  -4.9723505639491504e-18  -9.6362564620093846e-19  -3.8903589890609821e-19  -4.0511968431986605e-20  7.8045272054809001e-20  -8.3352230505471886e-20  3.9569457349995350e-19  -4.9783203381506778e-19  -9.0350816641702131e-19  -1.9634392828350926e-18  -2.5039008446123264e-18  2.9859351703953182e-18  -8.2562277027156979e-19  -6.0640845895275435e-18  -4.4087768799738384e-18  -2.8918251151546262e-18  -2.7907579930209852e-18  -6.5404803977362887e-18  -5.5538909771091739e-18  4.2639164105923190e-18  1.2477825617638966e-18  -4.2362936154772916e-18  2.3874903143308369e-19  2.2631667398410744e-18  2.2381035806030882e-18  -8.2387673094130897e-19  -8.1018340810182487e-19  1.7767163259439955e-19  -8.4465805494401764e-20  5.1991079801332072e-19  -9.8536154837876595e-19  -2.5597148433777713e-18  -6.4931953635073258e-18  -2.9227305836437599e-18  -5.8269093109737367e-19  -5.0914855477960237e-19  1.8178505360702682e-18  -2.9814909319274773e-18  -2.7172632616733021e-18  2.1873926924275145e-18  2.3648950148116914e-19  -4.2073380785719165e-18  1.7933611155663013e-18  5.7947579557684179e-18  -3.0773000600343304e-18  -2.7008055765415461e-18  -3.2455529592225546e-18  -2.8481020833986192e-18  1.0575332434082845e-18  1.0532780725598212e-18  -5.9673869836179139e-19  -6.8697428620931658e-02  -7.1676554121342051e-02  -7.3335770119127369e-02  -7.2608769630805078e-02  -7.0291171793913740e-02  -6.6506660757918695e-02  -6.2009299989675318e-02  -5.7103972042437862e-02  -5.2589916654307088e-02  -4.9186135733536390e-02  -4.7100609744063819e-02  -4.6545972879528094e-02  -4.7621660729832337e-02  -5.0005463097387674e-02  -5.3465667857645893e-02  -5.8057495259806954e-02  -6.2767397169029945e-02  -6.6996773238995860e-02  -7.0521148673264172e-02  -7.2725880428011383e-02  -7.3812200240460146e-02  -7.2542445273525588e-02  -6.9603068074846008e-02  -6.5161420560485545e-02  -6.0000572958972542e-02  -5.5108756090761518e-02  -5.1157227135768368e-02  -4.8567163359755736e-02  -4.7964036614782365e-02  -4.9377986367143918e-02  -5.2895289040787843e-02  -5.7801832033111684e-02  -6.2799969509122686e-02  -6.7033566757627672e-02  -7.0811574642362166e-02  -7.2647683486624676e-02  -7.3593637557021835e-02  -7.3052418984792256e-02  -7.1275980815276807e-02  -6.8173498960497250e-02  -6.4194030818239378e-02  -5.9620883460902468e-02  -5.4957225414639183e-02  -5.0758141176310223e-02  -4.7674390378527214e-02  -4.6371457233762667e-02  -4.7579355398706780e-02  -5.0008805340591142e-02  -5.3890078458767324e-02  -5.9066943003001179e-02  -6.3518712670109667e-02  -6.7412127528933122e-02  -7.0236263861686299e-02  -7.2036416208819593e-02  -7.2741946159844917e-02  -7.2346997284514269e-02  -7.0390603544476293e-02  -6.7080528460682035e-02  -6.2633695303895301e-02  -5.7092397090366093e-02  -5.2711563892878364e-02  -4.9329630579990139e-02  -4.7698283317929718e-02  -4.8186500995338583e-02  -5.1138148887793049e-02  -5.6045161773403969e-02  -6.0616979838355879e-02  -2.3502097907331931e-02  -1.7424505028359533e-02  -2.4640551615915107e-02  -1.0212746647520227e-02  -2.3911385843629205e-02  -2.0850808645401675e-02  -2.9123476716565629e-02  -6.5731564638522979e-03  -2.2784869438755715e-02  -2.4660145045183487e-02  -4.4722342483755652e-03  -2.5034833477081766e-02  -1.7877051294069024e-02  -4.9067292476272758e-03  -6.6677090349877930e-03  -1.5367171392185299e-02  -1.6976578237057855e-02  -1.2818291518853978e-02  -3.1107346906645291e-02  -1.7168250275466847e-02  -8.9780988729733033e-03  -1.5205998117852219e-02  -1.4979821086891306e-02  -2.2562416240383902e-02  -3.1295886057833594e-02  -1.4597852589574569e-02  -2.1576599351425228e-02  -1.5479720705289319e-02  -3.5812492132469577e-03  1.9326813909926608e-02  1.7530712270520683e-02  4.2870649959906068e-02  4.0225704895306698e-02  6.2498845521513469e-02  7.0706974978609269e-02  6.3434774960302698e-02  8.9473653265407682e-02  8.0711690319198587e-02  9.8624877636684261e-02  7.4372702340765096e-02  1.0529527750398922e-01  7.5477925612226285e-02  9.9507002288127658e-02  6.7936403620624281e-02  8.4650128968969326e-02  5.2583704761037790e-02  5.8347430565307452e-02  8.5443383491323355e-02  5.9456498769178905e-02  7.4458384353307261e-02  1.0175327343913193e-01  8.9601535053692602e-02  5.7580666010165010e-02  6.4566838318726338e-02  9.3236163476998757e-02  6.8361291820410383e-02  8.8716441165931414e-02  5.7580470176934677e-02  7.1596251570502908e-02  9.9879985746737024e-02  7.6237078698571006e-02  1.0406254589337462e-01  7.3951545920790659e-02  9.9215753864654574e-02  3.8981089479144360e-02  6.5159643032904349e-02  8.2746292599248983e-02  4.2179234688974013e-02  5.7171195715434255e-02  6.4944516702543018e-02  9.7008489219519725e-02  8.1126411732346082e-02  1.0114742975982302e-01  8.2049662282025274e-02  6.2920076346348414e-02  6.2186593019053549e-02  7.2391538592786839e-02  5.0804016148222046e-02  5.4015267043946560e-02  4.0000525610259692e-02  1.1366450426959919e-01  7.3820619017179789e-02  4.9620093049544116e-02  1.1638322663559875e-01  3.8537273271979498e-02  2.7859899976936057e-02  1.8772756016317869e-02  2.1559013800007163e-02  4.8460791132726180e-02  3.7351193705620823e-02  5.4344753424337137e-02  4.7133300387965975e-02  1.6062840860544464e-02  6.6633022824421753e-02  3.1912522686838356e-02  3.7187371590127562e-02  2.9255361600530595e-02  2.8862091149065142e-02  1.2615513693053639e-02  1.3268993746692661e-02  3.2615791068126128e-02  1.5589732370323430e-02  4.6971211617608415e-02  2.2958857740426882e-02  2.7451593635295229e-02  1.8928728596391980e-02  2.7909751474518952e-02  9.0186178692343629e-03  1.1319816548552603e-01  4.3120986601851347e-02  1.4307479892924798e-02  1.5357998717933748e-02  8.7401776578403673e-03  2.7531637603685023e-02  1.7696806534938159e-02  2.6013211250188798e-02  4.9775168591622648e-02  2.8590923258160299e-02  2.1166675165201865e-02  6.9122181602055896e-03  8.8171106115001070e-03  1.4504278020647101e-02  2.3224418176987543e-02  -1.0965646743185255e-02  5.4349826949109330e-02  1.6096203003912696e-02  3.5764766879209549e-02  4.1880669589663419e-03  2.0874749182564988e-03  4.5335320478729173e-02  2.6323055830693626e-02  1.5023652737190241e-02  7.6664991446746362e-03  7.8474697616124026e-03  4.7391512955482752e-02  2.5205760294901687e-02  1.2103648554008871e-01  2.7695758549685350e-02  3.4036393077520488e-02  1.1856778335155712e-02  3.8397297621297079e-03  3.5597997430043334e-02  1.1199501156330249e-01  1.6436903871812607e-03  4.0822152073730411e-02  1.4504507678341423e-02  4.3461798376310971e-02  1.2239368548007970e-01  -7.2365002746016321e-04  -1.7358602397723910e-02  1.1102337488533326e-01  9.2753080178009734e-02  9.0267879311818733e-02  -1.3787336346047065e-02  -8.4279815485211393e-03  -3.7459538403906766e-04  -2.0543375819618834e-02  -7.0547971224310165e-03  -2.5697047344695176e-02  -1.9186249143922415e-02  -9.2652647236152966e-03  -6.8436893173941639e-03  1.5790018693150047e-02  2.7668175732178734e-04  -2.1288251864331312e-02  -2.1992179880475772e-03  -2.9369244578220186e-02  -1.3924033635432266e-02  -5.8784144060209315e-03  8.7153350473185565e-03  3.2528616040077375e-02  -2.6598306848784541e-02  8.7647913861668789e-03  -2.0952805182340304e-02  2.5744353077732174e-03  -9.6157626716526570e-03  1.1018823714547592e-02  -1.1168901491081754e-02  -9.6276528212526323e-03  -1.3103551365371661e-02  -1.3481492909238675e-02  -2.9715118331458241e-02  -1.7409053628748578e-02  -2.3033077617690224e-02  1.0340737833637358e-02  -5.1140360668108977e-03  -1.1361004051085869e-02  -2.6803202605235985e-02  -1.6165100989557687e-02  7.9736528702536360e-03  -1.3275933664030057e-02  -4.1052379544489637e-03  -9.5498173581609249e-03  1.0630983528424541e-01  -8.9593341959133491e-03  -1.9362494103844750e-02  -6.0291774918733668e-03  4.2434988043255961e-02  1.1379652590939607e-02  -1.3158661522195882e-03  1.1126483085106184e-01  1.2299223414320325e-01  1.2793651266561221e-01  -3.0466655349844222e-02  4.3839902345599053e-03  -3.2715551655072513e-02  6.0533620320422270e-03  -3.0798458274196298e-02  -2.0066706466328060e-02  1.2582131312846928e-01  4.6872702121756506e-03  4.8488004883420277e-03  -1.7856999277786268e-02  1.2275571420337483e-01  5.9951265203059640e-03  1.0323925171213428e-02  -6.6877669605158443e-03  -3.2466165730945921e-04  7.2203462852719006e-03  3.8790943753082355e-02  -3.2348494085535036e-02  8.8090218193877679e-03  1.1666538390289954e-01  3.8191382420217121e-02  -2.6808284891735208e-02  -1.7717287152162108e-02  3.1745394568265146e-02  -1.1703662590906549e-02  4.9511250930115496e-03  6.9315555218033967e-02  7.1758199923362565e-03  -1.4641002584723731e-02  -1.2437075750099708e-03  2.3438289300290950e-03  1.0849776731452297e-01  1.6876515619655752e-02  -2.5750685600876226e-02  -6.9162126443912111e-03  4.4956074393705900e-02  2.9600391012817473e-02  6.6447940255568022e-02  1.0126602235994890e-02  -6.0367826488617569e-03  1.8338668528513863e-03  4.0942221988635417e-03  1.9495530722046999e-02  -4.6644891344934571e-03  2.3929611833147343e-02  2.9600923037341739e-02  4.6849336534639408e-02  5.3074338705360491e-02  2.8749319360193752e-02  -3.1125096613980913e-02  -6.7331895204381827e-03  5.1255396772255752e-03  2.9386395096289857e-02  1.1358695752277815e-02  -5.9140419411662128e-03  4.5973888033847506e-02  2.8414639491031339e-02  5.0895082058352373e-02  3.9307373658307172e-02  1.0381915757933399e-02  2.9349553856307262e-02  -2.1962088603662087e-02  1.9771312835201265e-02  9.8558342250744252e-02  2.3681212974726532e-02  2.9082403950172985e-02  4.5179759065427920e-02  -1.7885783149671451e-02  4.5179454961293358e-02  1.2510867420152172e-01  4.0999944046292820e-02  5.4991340701116467e-03  5.5119899831804729e-02  5.1424249719341099e-02  3.7972821474813137e-02  -5.8330091839947848e-03  3.3676949149278414e-02  -1.1145720070249862e-03  3.4657056388575219e-02  -9.8926659198459221e-02  -9.7936850063578440e-02  -9.9203102510275365e-02  -9.8946055303905073e-02  -9.3215372644125896e-02  -9.4288970334428179e-02  -9.4976371032476359e-02  -9.6470899051766007e-02  -9.0103949040588299e-02  -8.1820830349709481e-02  -8.9205225062109400e-02  -8.9364126092269403e-02  -8.3110478445904926e-02  -9.7831863026225041e-02  -7.8627700513253296e-02  -4.9817867031061246e-02  -3.9338967946283374e-02  -3.9098730948300381e-02  -8.2756827602239083e-02  -4.5716242169539546e-02  -4.2622417061719139e-02  -8.9754950164259772e-02  -8.0624008429548935e-02  -7.4445892285559825e-02  -4.8850627714039606e-02  -7.0147688669407682e-02  -4.5131243338750952e-02  -7.6796643865115893e-02  -5.9241849118044337e-02  -8.8668728549234063e-02  -8.0483183367731942e-02  -7.5596202031549264e-02  -5.3510093976948947e-02  -5.9730938502097999e-02  -6.9212763480452966e-02  -5.7623634633473822e-02  -6.1016280696901577e-02  -2.8673054780351440e-02  -4.0203647393729780e-02  -3.5953585562365040e-02  -7.6518923424723800e-02  -5.8199514345422754e-02  -6.6888188267063428e-02  -7.0372409571586220e-02  -7.2942636595834498e-02  -2.2031343309992062e-02  -2.1776771436703653e-02  -7.1213770404989649e-02  -7.8522389645723070e-02  -5.5860001508569908e-02  -4.2704755980192445e-02  -4.0323182325839819e-02  -4.8744200824451106e-02  -3.9664844814994341e-02  -4.4359557744065095e-02  -4.8537358387912330e-02  -3.9895354657066603e-02  -3.5487737545983500e-02  -2.9461641488700029e-02  -2.7827360658230587e-02  -7.1081324790946740e-02  -7.5755434642760661e-02  -7.6770515424120084e-02  -7.9601703159948176e-02  -8.0346870205123488e-02  -7.9787288117374969e-02  -7.7267959665838409e-02  -7.9318796178998965e-02  -8.0021764900846226e-02  -8.2489830805817926e-02  -7.4631302564073798e-02  -9.5220258284551523e-02  -1.0725090724249968e-01  -1.0975973985653099e-01  -1.2040319486829146e-01  -1.2286801369759473e-01  -1.1773251777467249e-01  -1.3184401872893223e-01  -1.3310315071318790e-01  -1.3832205703783637e-01  -1.3927465317059609e-01  -1.3454435019767061e-01  -1.3708556845864173e-01  -1.3190414972125952e-01  -1.3662298537076911e-01  -1.3029375571682794e-01  -1.2445868777140306e-01  -1.1702384799855103e-01  -1.1732689427254461e-01  -1.1108932567242430e-01  -1.1549281179567288e-01  -1.0345342764301850e-01  -1.0548416176732467e-01  -9.5687490820196258e-02  -1.3562285800911572e-01  -1.3529349009527591e-01  -9.5993071457966012e-02  -8.9534747791538166e-02  -9.6401643001280596e-02  -1.3177633895491722e-01  -8.0697610252422114e-02  -1.2603559767052722e-01  -1.1046705370398406e-01  -7.5445870187658637e-02  -8.3034849954198311e-02  -7.2674709464164586e-02  -7.9705205134143406e-02  -7.2388756868337165e-02  -7.9369197979863262e-02  -7.4544677145580801e-02  -8.1637901529522675e-02  -7.7840906918234545e-02  -8.6254943597146180e-02  -8.3412139819791273e-02  -9.3838650847505853e-02  -9.0360036594948220e-02  -1.0223664007745262e-01  -9.7712534241566687e-02  -1.1177628003363412e-01  -1.0502829268219015e-01  -1.2043638012721564e-01  -1.1057641639298510e-01  -1.2623573888370543e-01  -1.2922320156059680e-01  -1.3522637232795071e-01  -1.2800219531503679e-01  -1.3524175459601545e-01  -1.3873659290134818e-01  -1.3697794210932371e-01  -1.3849162923312688e-01  -1.2329505152197145e-01  -1.3462239757923822e-01  -1.3582726658703750e-01  -1.2606436174852209e-01  -1.1006398254117412e-01  -1.0340985836555064e-01  -1.2870413829179539e-01  -1.3131769373221758e-01  -1.3186626768455142e-01  -1.2855778213053579e-01  -1.2436330509522762e-01  -1.2669640553054989e-01  -1.2301653968312982e-01  -1.2117060946158911e-01  -1.2121064802957887e-01  -1.1414762313231215e-01  -1.1413413321496743e-01  -1.1894222038631351e-01  -1.1715491112339495e-01  -1.1583756311797497e-01  -1.1862873521270204e-01  -1.1182181276644167e-01  -1.1755172518286917e-01  -1.1865698584839686e-01  -1.2203810671650377e-01  -1.1653063299612336e-01  -1.2436477055360089e-01  -1.2260256558548113e-01  -1.2887317752758431e-01  -1.2438368908136710e-01  -1.3201287701099698e-01  -1.3072754719600896e-01  -1.3629915152629463e-01  -1.3221015953757301e-01  -1.3810184312785351e-01  -1.3679765646393111e-01  -1.3942112877497312e-01  -1.3548235398936778e-01  -1.3607735039298655e-01  -1.3591671022464907e-01  -1.2731767055937154e-01  -1.3099793295224896e-01  -1.2863175791628040e-01  -1.2122225062878518e-01  -1.1833991384848490e-01  -1.2710885324172425e-01  -1.1406101321771300e-01  -1.2122796962672150e-01  -1.0877260986634270e-01  -1.0743965748231288e-01  -1.0771985194040654e-01  -1.0743092115975855e-01  -1.2170008601132543e-01  -1.1176352848006843e-01  -1.0102437844403513e-01  -9.6274513020011943e-02  -5.4095287773634329e-02  -9.7467438862169853e-02  -1.2728574867855350e-01  -1.1220324136555154e-01  -1.1457215620508515e-01  -1.0964257196480233e-01  -1.0412720805086910e-01  -1.1551622988011231e-01  -8.8243594888000418e-02  -9.2161177945512193e-02  -8.7039349546730385e-02  -9.1317756117554799e-02  -8.0723435591010181e-02  -1.0748635654573270e-01  -1.0494962533435952e-01  -1.1360130113998443e-01  -8.3758399162580169e-02  -6.7498351098474546e-02  -1.0159132612446260e-01  -1.0037279936771150e-01  -1.1327134895739140e-01  -1.3192871981889823e-01  -1.2716214713427468e-01  -1.2762317616969462e-01  -1.2158254235757718e-01  -1.2403959169881593e-01  -1.1812306557464126e-01  -1.1847212069145029e-01  -1.2050290747613017e-01  -1.1815474609218682e-01  -1.1615023999729809e-01  -1.1882925019295096e-01  -1.1333196308717336e-01  -1.1606711905347888e-01  -1.1786449866259399e-01  -1.2026600268032167e-01  -1.1231946456098153e-01  -1.1909518067117247e-01  -1.2142252530554104e-01  -1.2532927868969840e-01  -1.1845300108949536e-01  -1.2698850450504975e-01  -1.2762243071185642e-01  -1.3296495510748105e-01  -1.2744973209498739e-01  -1.3490688004344661e-01  -1.3529445289563435e-01  -1.3882430206970112e-01  -1.3375734635038675e-01  -1.3756316916076897e-01  -1.3819317323547017e-01  -1.3576233221217249e-01  -1.3341890769406220e-01  -1.2910539588246475e-01  -1.2998529075346077e-01  -1.2536297691079062e-01  -1.1833914951241989e-01  -1.1478001408626461e-01  -1.2345873301066046e-01  -1.1499871104230415e-01  -1.1588759717809098e-01  -1.1512360357961846e-01  -1.0877096071451807e-01  -1.0472033049721446e-01  -1.0335155896806519e-01  -1.0553977945234101e-01  -9.7958698152010595e-02  -9.4908627448345786e-02  -9.3596174012615371e-02  -8.8675575846357255e-02  -1.0514186213076317e-01  -1.0257792382310106e-01  -1.1313644631376488e-01  -9.9526903405789943e-02  -9.0081044637278673e-02  -8.8187304300771069e-02  -1.1857105472157019e-01  -9.0115631341708163e-02  -9.6941989629257819e-02  -8.3387597966514487e-02  -1.0257133095374436e-01  -9.8469232295984435e-02  -8.9707659102945647e-02  -1.0614868310563497e-01  -8.3337704470660148e-02  -7.8560899256688674e-02  -8.2073822177178318e-02  -7.9518203094524342e-02  -7.7359088388999311e-02  -1.0707469097455145e-01  -8.8660580409306119e-02  -9.8052081025721743e-02  -1.0363996185023772e-01  -1.0815627997192828e-01  -9.