<?xml version="1.0"?>
<VTKFile type="UnstructuredGrid"  version="0.1"  >
<UnstructuredGrid>
<Piece  NumberOfPoints="1277" NumberOfCells="2456">
<Points>
<DataArray  type="Float64"  NumberOfComponents="3"  format="ascii">0 0 0  0 1 0  1 1 0  1 0 0  1.1 -0.1 0  -0.1 -0.1 0  1.1 1.1 0  -0.1 1.1 0  0.5069150031986545 0.5049286743761937 0  0.6391072766552232 0.7189624880845109 0  0 0.9499999999997918 0  0 0.8999999999995836 0  0 0.8499999999996529 0  0 0.7999999999999998 0  0 0.7500000000003466 0  0 0.7000000000006934 0  0 0.6500000000010401 0  0 0.6000000000013869 0  0 0.5500000000017335 0  0 0.5000000000020587 0  0 0.4500000000018723 0  0 0.4000000000016644 0  0 0.3500000000014564 0  0 0.3000000000012483 0  0 0.2500000000010403 0  0 0.2000000000008322 0  0 0.1500000000006241 0  0 0.100000000000416 0  0 0.05000000000020799 0  0.04999999999989965 0 0  0.09999999999981467 0 0  0.1499999999997036 0 0  0.1999999999995579 0 0  0.2499999999994121 0 0  0.2999999999992664 0 0  0.3499999999991206 0 0  0.3999999999989749 0 0  0.4499999999988292 0 0  0.4999999999986943 0 0  0.5499999999988151 0 0  0.5999999999989468 0 0  0.6499999999990784 0 0  0.69999999999921 0 0  0.7499999999993417 0 0  0.7999999999994734 0 0  0.8499999999996051 0 0  0.8999999999997368 0 0  0.9499999999998684 0 0  1 0.04999999999989965 0  1 0.09999999999981467 0  1 0.1499999999997036 0  1 0.1999999999995579 0  1 0.2499999999994121 0  1 0.2999999999992664 0  1 0.3499999999991206 0  1 0.3999999999989749 0  1 0.4499999999988292 0  1 0.4999999999986943 0  1 0.5499999999988151 0  1 0.5999999999989468 0  1 0.6499999999990784 0  1 0.69999999999921 0  1 0.7499999999993417 0  1 0.7999999999994734 0  1 0.8499999999996051 0  1 0.8999999999997368 0  1 0.9499999999998684 0  0.9499999999997918 1 0  0.8999999999995836 1 0  0.8499999999996529 1 0  0.7999999999999998 1 0  0.7500000000003466 1 0  0.7000000000006934 1 0  0.6500000000010401 1 0  0.6000000000013869 1 0  0.5500000000017335 1 0  0.5000000000020587 1 0  0.4500000000018723 1 0  0.4000000000016644 1 0  0.3500000000014564 1 0  0.3000000000012483 1 0  0.2500000000010403 1 0  0.2000000000008322 1 0  0.1500000000006241 1 0  0.100000000000416 1 0  0.05000000000020799 1 0  -0.1 1.05000000000004 0  -0.1 1.000000000000079 0  -0.1 0.9500000000001624 0  -0.1 0.9000000000003032 0  -0.1 0.850000000000444 0  -0.1 0.8000000000005848 0  -0.1 0.7500000000007256 0  -0.1 0.7000000000008665 0  -0.1 0.6500000000010508 0  -0.1 0.6000000000012352 0  -0.1 0.5500000000014196 0  -0.1 0.500000000001539 0  -0.1 0.4500000000014195 0  -0.1 0.4000000000013 0  -0.1 0.3500000000011588 0  -0.1 0.3000000000010178 0  -0.1 0.2500000000008986 0  -0.1 0.2000000000007579 0  -0.1 0.1500000000006174 0  -0.1 0.1000000000005272 0  -0.1 0.05000000000040083 0  -0.1 2.671196597248127e-13 0  -0.1 -0.0499999999998666 0  -0.0500000000000906 -0.1 0  -1.730560139634463e-13 -0.1 0  0.04999999999975802 -0.1 0  0.09999999999961506 -0.1 0  0.1499999999994613 -0.1 0  0.199999999999302 -0.1 0  0.2499999999991446 -0.1 0  0.2999999999990088 -0.1 0  0.3499999999988296 -0.1 0  0.3999999999986936 -0.1 0  0.4499999999985143 -0.1 0  0.4999999999984002 -0.1 0  0.5499999999985247 -0.1 0  0.5999999999986493 -0.1 0  0.6499999999987955 -0.1 0  0.6999999999989417 -0.1 0  0.7499999999990659 -0.1 0  0.7999999999992116 -0.1 0  0.8499999999993573 -0.1 0  0.8999999999994526 -0.1 0  0.949999999999584 -0.1 0  0.9999999999997226 -0.1 0  1.049999999999861 -0.1 0  1.1 -0.0500000000000906 0  1.1 -1.730560139634463e-13 0  1.1 0.04999999999975802 0  1.1 0.09999999999961506 0  1.1 0.1499999999994613 0  1.1 0.199999999999302 0  1.1 0.2499999999991446 0  1.1 0.2999999999990088 0  1.1 0.3499999999988296 0  1.1 0.3999999999986936 0  1.1 0.4499999999985143 0  1.1 0.4999999999984002 0  1.1 0.5499999999985247 0  1.1 0.5999999999986493 0  1.1 0.6499999999987955 0  1.1 0.6999999999989417 0  1.1 0.7499999999990659 0  1.1 0.7999999999992116 0  1.1 0.8499999999993573 0  1.1 0.8999999999994526 0  1.1 0.949999999999584 0  1.1 0.9999999999997226 0  1.1 1.049999999999861 0  1.05000000000004 1.1 0  1.000000000000079 1.1 0  0.9500000000001624 1.1 0  0.9000000000003032 1.1 0  0.850000000000444 1.1 0  0.8000000000005848 1.1 0  0.7500000000007256 1.1 0  0.7000000000008665 1.1 0  0.6500000000010508 1.1 0  0.6000000000012352 1.1 0  0.5500000000014196 1.1 0  0.500000000001539 1.1 0  0.4500000000014195 1.1 0  0.4000000000013 1.1 0  0.3500000000011588 1.1 0  0.3000000000010178 1.1 0  0.2500000000008986 1.1 0  0.2000000000007579 1.1 0  0.1500000000006174 1.1 0  0.1000000000005272 1.1 0  0.05000000000040083 1.1 0  2.671196597248127e-13 1.1 0  -0.0499999999998666 1.1 0  0.6650093624285142 0.7125964743654675 0  0.6892173650726977 0.7042015461577744 0  0.7114027494373509 0.6930747276196473 0  0.7307732206152148 0.6788838283628511 0  0.7478432127477251 0.6623573963325013 0  0.7623364017162549 0.6431328402557053 0  0.7745434099312323 0.6218647774123334 0  0.7840876693674242 0.5987620304314333 0  0.7913562144695581 0.5743857825898421 0  0.7965649599296583 0.5491160970393573 0  0.7995859498196501 0.5236336232352612 0  0.8006604843119033 0.4979539255015339 0  0.7998433433841489 0.4723802018756763 0  0.7968211798963425 0.447059919702988 0  0.7915547782550424 0.4227208166441371 0  0.7846682494523955 0.3993485009071243 0  0.7753351464420345 0.3774976178623096 0  0.7637104994520756 0.3575355543986843 0  0.7499779519957659 0.3396286140317384 0  0.7339841765949032 0.3240820376310625 0  0.7157904471499723 0.3098098554021606 0  0.6940480392088793 0.2985200648439076 0  0.6694560769702671 0.2895034682765639 0  0.6427372316608529 0.2833843552571066 0  0.6143156560863955 0.2795472968690187 0  0.5850461025905255 0.2773474040528255 0  0.5542845391046977 0.2761456999296254 0  0.5233656362863724 0.275830738432846 0  0.4926442118368461 0.2758148898649972 0  0.4618067352051814 0.2758574812687076 0  0.4312545017940644 0.2759437137250232 0  0.4010136563661141 0.2770261947389462 0  0.3731405550709679 0.2795766659909823 0  0.3475852148885572 0.2842405589906237 0  0.3237733732890276 0.2906479163683241 0  0.3033508714475698 0.2989595604263892 0  0.2851349208050729 0.3090039388127393 0  0.2688415690624243 0.3207595803822161 0  0.2543808691485254 0.3344197857615422 0  0.241615470377768 0.3501985808717791 0  0.2305334771796606 0.3679509783421737 0  0.2204977563361606 0.388712979384558 0  0.2117845015775313 0.4122968610856887 0  0.2052433277584649 0.4385410805504381 0  0.2012281282358085 0.466340394970377 0  0.1992972747950882 0.4942640505560793 0  0.1993399229902708 0.5230730986304052 0  0.2026161900568305 0.5511194282731332 0  0.2081732436224637 0.5785936793918383 0  0.2168439365471347 0.6047629294771274 0  0.2280938126731353 0.627266064738084 0  0.2406642782596278 0.646725163473118 0  0.2542173717478822 0.6629777454702511 0  0.2688490071951147 0.6768839997648506 0  0.2850249074655107 0.6889171916397787 0  0.3032740349855868 0.6994950144869201 0  0.3239826627846311 0.7083532501284934 0  0.347087938050293 0.7150919112289713 0  0.3724560643715699 0.7198112163913329 0  0.4005201994137718 0.7221100748448225 0  0.4296273306664745 0.7238560775618615 0  0.4598245457539357 0.7245794773619795 0  0.4904261072267914 0.7248622688373342 0  0.5212257844301614 0.7251969173824206 0  0.5519521895049331 0.7256331877002663 0  0.5827565931878868 0.7257656002593725 0  0.6119048566876577 0.7233402339149875 0  0.2627471158539774 0.6331997456998969 0  0.2446746147370314 0.3982278053316178 0  0.7479507635797189 0.6239322430265271 0  0.7756615438218667 0.5341770378082942 0  0.6429150387186545 0.6979289016254797 0  0.6214419552739837 0.2984221953344024 0  0.7232141853180374 0.3457126524347791 0  0.5131922457654382 0.2925440404050086 0  0.2825123375826817 0.3487429595426191 0  0.3304563970373527 0.3142848478439102 0  0.4309499150172741 0.3001322240614064 0  0.3098601811510768 0.67343284688276 0  0.3715024583499258 0.6965698875951948 0  0.451411178962247 0.7038268855587323 0  0.537450520151606 0.7071478184673425 0  0.7647810657183899 0.4186475117936039 0  0.2213786654421251 0.5549964328669825 0  0.2210776374411533 0.4647861171950887 0  0.7072487228732252 0.6698723436629767 0  0.375311729766422 0.3025057699686207 0  0.7739717366054782 0.4649557066945347 0  0.5932884758219724 0.7057369381856675 0  0.7656900538464294 0.5786175898326085 0  0.7472405883955152 0.3790403564813942 0  0.6891516406116602 0.3187846094410489 0  0.5725863217487135 0.2917082123231188 0  0.2377712803205415 0.5992931708134135 0  0.2141024300181771 0.5077449995543193 0  0.4806217727360653 0.7052712827887693 0  0.4735239696049813 0.6838218207397635 0  0.4440573576761928 0.6819680052148122 0  0.4663404877122261 0.6612546035578809 0  0.434933684843558 0.6589040396088321 0  0.4532640888417955 0.6405648242213851 0  0.4803574546360339 0.6356385498983063 0  0.4265900882182043 0.6340116212899263 0  0.4507112937933814 0.6077518488810902 0  0.4086514838062084 0.6052478192139245 0  0.5008782815600479 0.6008496974435468 0  0.5423525658047589 0.6295187939096042 0  0.5493062879736137 0.5826731166670753 0  0.5850291285143387 0.6165026612534393 0  0.5963102396102113 0.5696296104673483 0  0.6302632941394742 0.6029318501712146 0  0.6427649844966355 0.5556899827798412 0  0.677911992149248 0.5842784100760421 0  0.6907180174574492 0.547562021049983 0  0.6561769335161798 0.5201293089219255 0  0.6973406926106795 0.5168351684940224 0  0.6757896469068038 0.4865073848203897 0  0.627178852768588 0.4947796217567483 0  0.6413926674679603 0.4590028518951331 0  0.6891067288234273 0.4464683292401598 0  0.6601377821584133 0.4199066650514561 0  0.6111397780396715 0.4305794653198329 0  0.6264657157989502 0.396729927245337 0  0.580773545881239 0.4027824587245762 0  0.5999261543475186 0.3682539449755653 0  0.5487420473573064 0.369408848237582 0  0.5350056202948617 0.4059640033752307 0  0.50077162915972 0.3700209299926701 0  0.4873353767206217 0.4095054237600551 0  0.4518575724726042 0.3716625769771576 0  0.4397570192197294 0.4112922938074047 0  0.6633841
[...]
<PointData  Scalars="u"> 
<DataArray  type="Float64"  Name="u"  format="ascii">-2.9355745007235558e-18  -3.9820154173880511e-18  -2.8656152537334472e-17  1.4655633046120014e-20  2.7771559305236792e-20  2.9580845659151620e-19  -5.3740429872671753e-20  3.1286924034260478e-19  1.3196526759603688e-01  -6.4763350745093415e-02  -1.1444482255089483e-17  -3.0829378962457906e-17  2.2188251389835789e-17  -7.2794790379874152e-19  -2.8900087017228270e-17  -2.8388804853258674e-17  -4.3642728437894468e-17  4.8662275590288606e-17  -1.2075722712173120e-17  -3.1805771970279424e-17  1.1360526951109092e-17  -1.7171545721382415e-17  -4.3608551471108255e-17  4.2158544854232791e-17  9.0383292792584264e-18  -3.0613220002602223e-17  8.0494157543600370e-19  -3.7981714497113723e-17  3.6127300814346179e-17  -1.9354436532902317e-17  -2.4058370508021989e-17  -1.8720144597995057e-17  -5.3127757441897741e-17  -9.9242187445461389e-18  -2.1383810516974719e-17  5.8177010563694697e-17  -4.5665395078311548e-17  -5.7794749701907207e-17  7.5037337353530797e-17  -1.2282206535457847e-16  -1.2469014286022913e-16  -8.7481535127703627e-17  -1.4710267423008055e-17  -1.9205088042851004e-17  -6.9067269061639974e-17  -2.9368032303114561e-17  -1.4254144696712888e-17  -6.8914314655474167e-19  2.0231258501576302e-17  3.9495035866607278e-17  3.8975404902368392e-18  -1.7605168113514640e-16  1.7636487038758781e-16  1.9015608557770360e-17  -1.6222358185920814e-16  -1.6981183624942432e-17  1.4875923157146219e-16  -1.3783782832046537e-16  -4.1755433871138827e-16  -6.2103202392878880e-17  1.4017591164241012e-16  1.1583265811046560e-16  -2.9363503212566305e-17  1.5956521863732026e-16  1.6328099978820609e-17  1.4190188549524013e-17  -8.3152029593985245e-17  -6.4678380844634121e-18  -3.6585796293677878e-17  -7.7067601340448352e-17  1.5205516302276953e-16  1.1247482862922579e-17  -2.6883611328270091e-17  2.8939686505779659e-17  -2.4242388841121263e-16  8.7507484262275894e-17  2.3171935120153733e-16  -1.0313225534831979e-16  6.7425157661236786e-17  3.4502077356185849e-16  3.0094139728160589e-16  -1.7300267110087624e-16  7.3935114339535751e-17  -2.2485167130151101e-17  4.6986944541605015e-17  8.8593819922776881e-17  -1.0689415292798828e-19  4.5732376003663194e-20  -3.4459496824485741e-18  -3.6484415041269046e-18  2.0588007042463543e-18  -2.9453881363213038e-20  -4.1238598159040054e-18  -7.0958033877496271e-18  -1.9757182250015042e-18  4.8813894429178907e-18  1.9670148648336330e-20  -4.3823007248967198e-18  -3.4814121563721645e-19  -2.5281654380319561e-18  -3.8901066494614056e-18  1.5578224494565310e-18  1.8472652780814589e-18  -1.8733904505487030e-18  -2.7371995640505010e-18  -1.8381416084221711e-18  1.1282801317875850e-18  1.7379671818521546e-18  -8.7603158320252326e-19  1.4423020375226102e-19  -5.5814481222336195e-19  -2.1330634040398286e-18  -4.7455436161185752e-18  -4.8249237366163592e-18  -5.4286205997201086e-18  -4.1667004297777008e-18  1.3143140983214189e-18  4.2113249011975946e-18  -6.2686153465382182e-18  -3.4439789286303316e-18  1.8091431742624047e-19  -1.3328765862145890e-17  -1.9792078182408855e-17  -1.2134528322745718e-17  -2.6066428776521343e-19  -9.6876633574642430e-19  -8.7309321589902255e-18  -5.4632810745398221e-18  -1.3567381416098049e-18  -1.0999481697395476e-19  4.5873060437901086e-20  -8.3264724101361359e-21  -1.0727063626726031e-19  3.5231491041192670e-19  -4.5283703034652478e-19  -8.0393112426875621e-19  -1.8810999160498896e-18  -2.3017055639855791e-18  3.5729195434310994e-18  -3.8795307808115528e-19  -5.7758789037084398e-18  -4.3482148220492101e-18  -3.4533137810308916e-18  -3.2963023088062382e-18  -6.5747093170550712e-18  -5.6396916842495474e-18  3.6545867691060406e-18  4.1668180290401928e-19  -4.4595409553608197e-18  3.8372194144249604e-19  2.0156252612849537e-18  1.5819035599874523e-18  -1.2560684545407116e-18  -7.5520227055410339e-19  2.0701572251434365e-19  -9.2480373898118303e-20  6.2621720881479774e-19  -9.9578056318939441e-19  -3.1234081078095503e-18  -7.6294320161796005e-18  -3.0576891335934289e-18  -9.9500622552880564e-20  -3.3926640996860630e-20  2.9252018857732674e-18  -2.5120420313715377e-18  -2.9616764854815363e-18  1.7584921645005509e-18  -5.8062848922353119e-19  -4.8524490815909178e-18  1.6295793243447580e-18  5.2748517450309971e-18  -3.0079346306262479e-18  -2.7624691066224101e-18  -4.2081628442080263e-18  -2.8987746806327654e-18  1.2785395495441884e-18  9.8164638764742453e-19  -6.3490952397819544e-19  -6.8713441427393940e-02  -7.1689839367051825e-02  -7.3346689813705290e-02  -7.2617799762506777e-02  -7.0299078476733182e-02  -6.6513444099520772e-02  -6.2014681830470375e-02  -5.7107969980549692e-02  -5.2592370833865899e-02  -4.9186554087865854e-02  -4.7099016748962587e-02  -4.6542179159543721e-02  -4.7615559582262927e-02  -4.9997141935633746e-02  -5.3455530804259882e-02  -5.8044866041801778e-02  -6.2752316717683457e-02  -6.6979322613379036e-02  -7.0501291335538535e-02  -7.2704245863457861e-02  -7.3788076763780200e-02  -7.2517509839896827e-02  -6.9577165556643977e-02  -6.5135646673497430e-02  -5.9975134441386586e-02  -5.5084045945867570e-02  -5.1133141822688938e-02  -4.8543882366311568e-02  -4.7941300469443407e-02  -4.9355662024666777e-02  -5.2873258719823936e-02  -5.7780334643897029e-02  -6.2778659511690510e-02  -6.7012723980567207e-02  -7.0790894134696497e-02  -7.2627666019334569e-02  -7.3574505247290783e-02  -7.3034682563921219e-02  -7.1260121841250690e-02  -6.8160062003577992e-02  -6.4183299306723660e-02  -5.9612665924885413e-02  -5.4951088001210527e-02  -5.0754148537446711e-02  -4.7672457993946538e-02  -4.6371495663215793e-02  -4.7581108767087370e-02  -5.0013031878382783e-02  -5.3896577195806900e-02  -5.9075616824227684e-02  -6.3529699299218173e-02  -6.7424877630299945e-02  -7.0250636743152281e-02  -7.2052388551676283e-02  -7.2759745571457160e-02  -7.2366720257523803e-02  -7.0412408265797949e-02  -6.7104180764973265e-02  -6.2658576012195114e-02  -5.7118140330496857e-02  -5.2736947764101587e-02  -4.9354580184882799e-02  -4.7722749756173397e-02  -4.8210324047305832e-02  -5.1161225166336775e-02  -5.6067532264734571e-02  -6.0637370301101841e-02  -2.3514217063587722e-02  -1.7416249817757225e-02  -2.4646489779123003e-02  -1.0213519354308167e-02  -2.3925579236174662e-02  -2.0828093351106192e-02  -2.9104413981281472e-02  -6.5527816384202391e-03  -2.2769757206382281e-02  -2.4641737920219991e-02  -4.4533347847225593e-03  -2.5051724003050866e-02  -1.7898445040990096e-02  -4.9283840294178302e-03  -6.6880637703537870e-03  -1.5357217075639782e-02  -1.6981615728938190e-02  -1.2816299069783047e-02  -3.1116160425106079e-02  -1.7149452527332652e-02  -8.9728019111454341e-03  -1.5223968646431168e-02  -1.4983555590906984e-02  -2.2547604672466130e-02  -3.1273497679116059e-02  -1.4575728127166593e-02  -2.1585448599351593e-02  -1.5480870363885698e-02  -3.6029351936772425e-03  1.9307456267996823e-02  1.7510821677748350e-02  4.2853226829204227e-02  4.0208341365522454e-02  6.2483678154441988e-02  7.0692629229091974e-02  6.3420335943815451e-02  8.9462378517845123e-02  8.0700647856750005e-02  9.8614767681419732e-02  7.4360119356776971e-02  1.0528764851274314e-01  7.5467894527451521e-02  9.9501330529736490e-02  6.7928982280724443e-02  8.4646512701488194e-02  5.2578624135302891e-02  5.8345125319096143e-02  8.5443115775790598e-02  5.9456840742729611e-02  7.4461257799455366e-02  1.0175525747060714e-01  8.9607230575068211e-02  5.7587821718212945e-02  6.4576875867244449e-02  9.3244579529719027e-02  6.8373697350745791e-02  8.8727526426352912e-02  5.7595347927374765e-02  7.1610266202121173e-02  9.9890207657533564e-02  7.6250474944911925e-02  1.0407206496669535e-01  7.3964453412093525e-02  9.9224902892577765e-02  3.8972591920673545e-02  6.5172143101508900e-02  8.2755878982811185e-02  4.2196115772475284e-02  5.7157935649243714e-02  6.4933852018783364e-02  9.7001936937043093e-02  8.1120365591801649e-02  1.0114493550020839e-01  8.2047255511504241e-02  6.2914254574080772e-02  6.2184150148526927e-02  7.2392287963579147e-02  5.0804877233010498e-02  5.4019193381493892e-02  3.9998437541592859e-02  1.1366971028996853e-01  7.3824578783563299e-02  4.9627028940191380e-02  1.1638101376958009e-01  3.8552769214290600e-02  2.7860512844000131e-02  1.8770704487339449e-02  2.1554299867848653e-02  4.8473104019444060e-02  3.7361986093682312e-02  5.4330974930236600e-02  4.7148982399947872e-02  1.6043311466225067e-02  6.6642375006087010e-02  3.1909188137734391e-02  3.7202976464580470e-02  2.9270336173748444e-02  2.8874096945887207e-02  1.2630288471712128e-02  1.3249118115097155e-02  3.2602481845263674e-02  1.5573283665875964e-02  4.6959434618930235e-02  2.2945049407580919e-02  2.7458358284153099e-02  1.8938268822633983e-02  2.7917860062424370e-02  9.0295497371378642e-03  1.1319097262424588e-01  4.3134618663269293e-02  1.4321557998492204e-02  1.5375036634155492e-02  8.7591678649107819e-03  2.7549756630653986e-02  1.7716133460986199e-02  2.6031505769596817e-02  4.9791173622838872e-02  2.8608251391249555e-02  2.1160468086923418e-02  6.9073491373036920e-03  8.8090983897419154e-03  1.4494344929062907e-02  2.3241421609095512e-02  -1.0972391512314517e-02  5.4340917465559010e-02  1.6083886463062875e-02  3.5756403816321163e-02  4.1769386225975792e-03  2.0828165557652497e-03  4.5340736278590671e-02  2.6325688340452208e-02  1.5029559491630866e-02  7.6668036768547552e-03  7.8501370921831050e-03  4.7375529779220375e-02  2.5188570554647356e-02  1.2104272412998449e-01  2.7699704033517319e-02  3.4035683653892881e-02  1.1854091602767507e-02  3.8600029521217434e-03  3.5580821651474928e-02  1.1199679557384054e-01  1.6490486756801754e-03  4.0816630585130048e-02  1.4497198417871240e-02  4.3471215522386170e-02  1.2239133419163081e-01  -7.1446933842607429e-04  -1.7345973275244477e-02  1.1102776701041989e-01  9.2754192403836672e-02  9.0272594658701452e-02  -1.3783112898415823e-02  -8.4503436196197487e-03  -3.8146037954981228e-04  -2.0526067249867230e-02  -7.0352543480336699e-03  -2.5710774992706988e-02  -1.9206295383001865e-02  -9.2744684870192419e-03  -6.8547325676357063e-03  1.5777955764260096e-02  2.6254779003725910e-04  -2.1269678898380211e-02  -2.2014205726947362e-03  -2.9352343396104201e-02  -1.3905070994845488e-02  -5.8585008206425305e-03  8.7325765000713824e-03  3.2543957847263459e-02  -2.6613645009968882e-02  8.7771875823979568e-03  -2.0971245966972144e-02  2.5585326120015602e-03  -9.6147031681409513e-03  1.1018762845702541e-02  -1.1188406182177476e-02  -9.6244857518433882e-03  -1.3125863794815576e-02  -1.3473892030651042e-02  -2.9725282838176843e-02  -1.7396561625291393e-02  -2.3043768201267432e-02  1.0344466753770241e-02  -5.1351987354242637e-03  -1.1363372539006574e-02  -2.6786090911810893e-02  -1.6169985441814267e-02  7.9934718374779050e-03  -1.3253768481658500e-02  -4.0842291139137274e-03  -9.5299195366386272e-03  1.0630821087148372e-01  -8.9382234035552642e-03  -1.9378523098889811e-02  -6.0125256393632233e-03  4.2417723660858157e-02  1.1398479030348879e-02  -1.3256015690572389e-03  1.1127195807526412e-01  1.2299748698007777e-01  1.2793792781926372e-01  -3.0445616345837961e-02  4.3652309697599671e-03  -3.2723057330107219e-02  6.0357992502232897e-03  -3.0775034883183283e-02  -2.0060351142050365e-02  1.2582397571217302e-01  4.6953435616052721e-03  4.8691169915631429e-03  -1.7863932531269344e-02  1.2275092575889118e-01  6.0120652638951545e-03  1.0343298699613328e-02  -6.6878196816923165e-03  -3.3922588505800092e-04  7.2222499761887141e-03  3.8780500776137261e-02  -3.2355257216631891e-02  8.7895392733770058e-03  1.1666633082321194e-01  3.8203801613639260e-02  -2.6820610357864372e-02  -1.7720171174591268e-02  3.1746547187960147e-02  -1.1682381197974325e-02  4.9581748175401815e-03  6.9301388610592971e-02  7.1743894555456288e-03  -1.4648876793866741e-02  -1.2289824577009236e-03  2.3399560159265489e-03  1.0849097998872462e-01  1.6891927575652024e-02  -2.5739743058502663e-02  -6.8978830146972257e-03  4.4972609936485136e-02  2.9618074185064059e-02  6.6454889320539806e-02  1.0145182870658489e-02  -6.0454900555837352e-03  1.8505752993101718e-03  4.0783444105032193e-03  1.9513161908515514e-02  -4.6776676900280650e-03  2.3944211354255035e-02  2.9605140183870757e-02  4.6852313520160213e-02  5.3088480580179356e-02  2.8744442517909828e-02  -3.1101153860697884e-02  -6.7180539379337271e-03  5.1385012329598608e-03  2.9371049219689208e-02  1.1339536621907106e-02  -5.9197869930238487e-03  4.5989224030730733e-02  2.8432104877063803e-02  5.0910674032395721e-02  3.9293283825301652e-02  1.0399458207782519e-02  2.9333036090287774e-02  -2.1938907532833344e-02  1.9762932049373415e-02  9.8564306184870415e-02  2.3670833018540130e-02  2.9064517865533521e-02  4.5166467590080077e-02  -1.7885404519489462e-02  4.5164071464008131e-02  1.2510581019922529e-01  4.1011818463578070e-02  5.4803509579348158e-03  5.5105412514508033e-02  5.1437393202579361e-02  3.7961444627218323e-02  -5.8457209126368294e-03  3.3686420376885171e-02  -1.0981329786796123e-03  3.4655012518509637e-02  -9.8908040389389093e-02  -9.7954711312212964e-02  -9.9179455948461864e-02  -9.8958524884501464e-02  -9.3223656375779368e-02  -9.4267007311379242e-02  -9.5000319975112282e-02  -9.6489225450685695e-02  -9.0091796474977850e-02  -8.1847705184089042e-02  -8.9187921463431324e-02  -8.9375954690699158e-02  -8.3086623743252264e-02  -9.7805080014237239e-02  -7.8653677526011698e-02  -4.9844801762918244e-02  -3.9325447610743441e-02  -3.9081355738947984e-02  -8.2761197266739486e-02  -4.5737040357790512e-02  -4.2614982882882624e-02  -8.9727462925967033e-02  -8.0597431859984525e-02  -7.4435090268943183e-02  -4.8856293234233523e-02  -7.0145540906049880e-02  -4.5136683633003591e-02  -7.6771217445819176e-02  -5.9215839555108021e-02  -8.8691357525469042e-02  -8.0491050208849405e-02  -7.5590881488683731e-02  -5.3542391582703332e-02  -5.9771558843140844e-02  -6.9206103371407326e-02  -5.7596912798851208e-02  -6.1058697742967856e-02  -2.8659675416175499e-02  -4.0197904406950494e-02  -3.5952591057738612e-02  -7.6545590770054045e-02  -5.8238099153668267e-02  -6.6858125508109489e-02  -7.0370740790795930e-02  -7.2909681363111267e-02  -2.2019240421967779e-02  -2.1769695267826107e-02  -7.1216566948934287e-02  -7.8487877035581244e-02  -5.5863668210639601e-02  -4.2712305100209916e-02  -4.0315207940608451e-02  -4.8740449948636168e-02  -3.9674051803905583e-02  -4.4340617103982294e-02  -4.8537969905762889e-02  -3.9908314460984758e-02  -3.5475618857242978e-02  -2.9474243267473367e-02  -2.7817423443692414e-02  -7.1081304286515226e-02  -7.5753927188511219e-02  -7.6770452904786721e-02  -7.9600061987660758e-02  -8.0343879523078976e-02  -7.9786977023195829e-02  -7.7266014962433197e-02  -7.9320054716915250e-02  -8.0022540396951003e-02  -8.2492165157780267e-02  -7.4635922418582024e-02  -9.5192662734087233e-02  -1.0722221717079909e-01  -1.0973209355831175e-01  -1.2037340558240701e-01  -1.2283940068661557e-01  -1.1770169473016259e-01  -1.3181331089880685e-01  -1.3307430314300731e-01  -1.3829091809657101e-01  -1.3924547988534003e-01  -1.3451728498889567e-01  -1.3705850803818137e-01  -1.3187900018470425e-01  -1.3659423724070166e-01  -1.3026878709616382e-01  -1.2443528364681997e-01  -1.1700093436339865e-01  -1.1730326427533561e-01  -1.1106741865949953e-01  -1.1547111537762658e-01  -1.0343266788412431e-01  -1.0546439213280880e-01  -9.5668151706556709e-02  -1.3558998793932459e-01  -1.3526050374728776e-01  -9.5975156550664506e-02  -8.9517099155275753e-02  -9.6380703386858682e-02  -1.3174162401259476e-01  -8.0678691214215642e-02  -1.2601054281963642e-01  -1.1044631555816856e-01  -7.5428326243132893e-02  -8.3019049141439552e-02  -7.2658932484413657e-02  -7.9691840308988210e-02  -7.2375162300166412e-02  -7.9358908763771052e-02  -7.4533717638947158e-02  -8.1630863226627146e-02  -7.7833048639011831e-02  -8.6250874574238717e-02  -8.3407700543974311e-02  -9.3838418495809983e-02  -9.0359227790528060e-02  -1.0223976952977439e-01  -9.7715499089199548e-02  -1.1178335517196719e-01  -1.0503509544062591e-01  -1.2044759928295533e-01  -1.1058711571988759e-01  -1.2625113269977753e-01  -1.2923877643196768e-01  -1.3524667465772131e-01  -1.2802181377724320e-01  -1.3526676693573203e-01  -1.3876180410358852e-01  -1.3700838560308368e-01  -1.3852166528542889e-01  -1.2331880998169249e-01  -1.3465801284960871e-01  -1.3586201649299467e-01  -1.2609974558597112e-01  -1.1008157626752767e-01  -1.0343108789499310e-01  -1.2874504774535364e-01  -1.3135640377623897e-01  -1.3188975938493955e-01  -1.2859032701422821e-01  -1.2439876423954574e-01  -1.2673822681325853e-01  -1.2305554770544479e-01  -1.2121494656992253e-01  -1.2125205266130870e-01  -1.1418324324383022e-01  -1.1417116595608559e-01  -1.1898495604234495e-01  -1.1719411751464216e-01  -1.1588087648864906e-01  -1.1866897010370027e-01  -1.1185764246342800e-01  -1.1758831920145907e-01  -1.1869725583412728e-01  -1.2207536633680550e-01  -1.1657010156059422e-01  -1.2440136966145893e-01  -1.2263648397120192e-01  -1.2890655948717805e-01  -1.2441874030618072e-01  -1.3204486573316668e-01  -1.3075758448445260e-01  -1.3632764928764224e-01  -1.3223995161998911e-01  -1.3812811241143608e-01  -1.3682245085933434e-01  -1.3944354461066885e-01  -1.3550578044902700e-01  -1.3609700547744744e-01  -1.3593535487397468e-01  -1.2733781571262973e-01  -1.3101393773390207e-01  -1.2864686720577559e-01  -1.2123488558735104e-01  -1.1835171223039195e-01  -1.2712617472281634e-01  -1.1407342503083170e-01  -1.2125177301224763e-01  -1.0879253930737554e-01  -1.0744626891824080e-01  -1.0772928127986621e-01  -1.0743990836997148e-01  -1.2166595607249066e-01  -1.1177473636789341e-01  -1.0103242141741320e-01  -9.6280933389610149e-02  -5.4082255844098641e-02  -9.7477315778899065e-02  -1.2725350190996265e-01  -1.1221974515257135e-01  -1.1461810600664482e-01  -1.0967096210978143e-01  -1.0415978756375811e-01  -1.1554499329363122e-01  -8.8249944269382999e-02  -9.2166618246283527e-02  -8.7039282578902949e-02  -9.1333483546319164e-02  -8.0710919762600558e-02  -1.0753198771649762e-01  -1.0499121669393531e-01  -1.1357466195666618e-01  -8.3781870372188982e-02  -6.7494032260423067e-02  -1.0162292354897205e-01  -1.0040243288874480e-01  -1.1330431184409927e-01  -1.3189431345186930e-01  -1.2712592516134927e-01  -1.2758760381730488e-01  -1.2154517596213744e-01  -1.2400250184435145e-01  -1.1808861293369508e-01  -1.1843635478678004e-01  -1.2046493423307418e-01  -1.1811838058789011e-01  -1.1611198011842513e-01  -1.1879204713602509e-01  -1.1329695396100438e-01  -1.1603204392248163e-01  -1.1782737314875577e-01  -1.2023072502629727e-01  -1.1228659625109316e-01  -1.1906238300896359e-01  -1.2138806359336531e-01  -1.2529699492953217e-01  -1.1842275406512448e-01  -1.2695880712257129e-01  -1.2759153538767984e-01  -1.3293697727972092e-01  -1.2742086025910321e-01  -1.3488066452154257e-01  -1.3526893165552520e-01  -1.3880087811540640e-01  -1.3373334064567655e-01  -1.3754203375861326e-01  -1.3817283184312695e-01  -1.3574406548044604e-01  -1.3340151369945275e-01  -1.2908981378027337e-01  -1.2996668566482489e-01  -1.2534833777123122e-01  -1.1832609196009394e-01  -1.1476797669388134e-01  -1.2344261349950192e-01  -1.1498523849033458e-01  -1.1585996568253563e-01  -1.1509268310191623e-01  -1.0874270817907924e-01  -1.0470956733457186e-01  -1.0334184941735365e-01  -1.0552905753199848e-01  -9.7950028250258420e-02  -9.4899439838371624e-02  -9.3588463274746445e-02  -8.8669429703213246e-02  -1.0511455163488326e-01  -1.0255278550303722e-01  -1.1311107284063159e-01  -9.9516004459530613e-02  -9.0088229525272651e-02  -8.8158513356397100e-02  -1.1859740115267341e-01  -9.0108054103600996e-02  -9.6973269184780844e-02  -8.3391583375117512e-02  -1.0254174341010380e-01  -9.8439559399917317e-02  -8.9698257438792076e-02  -1.0618284947251175e-01  -8.3332033404937750e-02  -7.8554008985707260e-02  -8.2070859590413700e-02  -7.9518231390926661e-02  -7.7352310820398631e-02  -1.0704218764515112e-01  -8.8687883728067227e-02  -9.8062683997286654e-02  -1.0365053877098038e-01  -1.0816897628771889e-01  -