<?xml version="1.0"?>
<VTKFile type="UnstructuredGrid"  version="0.1"  >
<UnstructuredGrid>
<Piece  NumberOfPoints="1078" NumberOfCells="2058">
<Points>
<DataArray  type="Float64"  NumberOfComponents="3"  format="ascii">0 0 0  0 1 0  1 1 0  1 0 0  1.1 -0.1 0  -0.1 -0.1 0  1.1 1.1 0  -0.1 1.1 0  0.496604271903018 0.5490936444168324 0  0 0.9499999999997918 0  0 0.8999999999995836 0  0 0.8499999999996529 0  0 0.7999999999999998 0  0 0.7500000000003466 0  0 0.7000000000006934 0  0 0.6500000000010401 0  0 0.6000000000013869 0  0 0.5500000000017335 0  0 0.5000000000020587 0  0 0.4500000000018723 0  0 0.4000000000016644 0  0 0.3500000000014564 0  0 0.3000000000012483 0  0 0.2500000000010403 0  0 0.2000000000008322 0  0 0.1500000000006241 0  0 0.100000000000416 0  0 0.05000000000020799 0  0.04999999999989965 0 0  0.09999999999981467 0 0  0.1499999999997036 0 0  0.1999999999995579 0 0  0.2499999999994121 0 0  0.2999999999992664 0 0  0.3499999999991206 0 0  0.3999999999989749 0 0  0.4499999999988292 0 0  0.4999999999986943 0 0  0.5499999999988151 0 0  0.5999999999989468 0 0  0.6499999999990784 0 0  0.69999999999921 0 0  0.7499999999993417 0 0  0.7999999999994734 0 0  0.8499999999996051 0 0  0.8999999999997368 0 0  0.9499999999998684 0 0  1 0.04999999999989965 0  1 0.09999999999981467 0  1 0.1499999999997036 0  1 0.1999999999995579 0  1 0.2499999999994121 0  1 0.2999999999992664 0  1 0.3499999999991206 0  1 0.3999999999989749 0  1 0.4499999999988292 0  1 0.4999999999986943 0  1 0.5499999999988151 0  1 0.5999999999989468 0  1 0.6499999999990784 0  1 0.69999999999921 0  1 0.7499999999993417 0  1 0.7999999999994734 0  1 0.8499999999996051 0  1 0.8999999999997368 0  1 0.9499999999998684 0  0.9499999999997918 1 0  0.8999999999995836 1 0  0.8499999999996529 1 0  0.7999999999999998 1 0  0.7500000000003466 1 0  0.7000000000006934 1 0  0.6500000000010401 1 0  0.6000000000013869 1 0  0.5500000000017335 1 0  0.5000000000020587 1 0  0.4500000000018723 1 0  0.4000000000016644 1 0  0.3500000000014564 1 0  0.3000000000012483 1 0  0.2500000000010403 1 0  0.2000000000008322 1 0  0.1500000000006241 1 0  0.100000000000416 1 0  0.05000000000020799 1 0  -0.1 1.05000000000004 0  -0.1 1.000000000000079 0  -0.1 0.9500000000001624 0  -0.1 0.9000000000003032 0  -0.1 0.850000000000444 0  -0.1 0.8000000000005848 0  -0.1 0.7500000000007256 0  -0.1 0.7000000000008665 0  -0.1 0.6500000000010508 0  -0.1 0.6000000000012352 0  -0.1 0.5500000000014196 0  -0.1 0.500000000001539 0  -0.1 0.4500000000014195 0  -0.1 0.4000000000013 0  -0.1 0.3500000000011588 0  -0.1 0.3000000000010178 0  -0.1 0.2500000000008986 0  -0.1 0.2000000000007579 0  -0.1 0.1500000000006174 0  -0.1 0.1000000000005272 0  -0.1 0.05000000000040083 0  -0.1 2.671196597248127e-13 0  -0.1 -0.0499999999998666 0  -0.0500000000000906 -0.1 0  -1.730560139634463e-13 -0.1 0  0.04999999999975802 -0.1 0  0.09999999999961506 -0.1 0  0.1499999999994613 -0.1 0  0.199999999999302 -0.1 0  0.2499999999991446 -0.1 0  0.2999999999990088 -0.1 0  0.3499999999988296 -0.1 0  0.3999999999986936 -0.1 0  0.4499999999985143 -0.1 0  0.4999999999984002 -0.1 0  0.5499999999985247 -0.1 0  0.5999999999986493 -0.1 0  0.6499999999987955 -0.1 0  0.6999999999989417 -0.1 0  0.7499999999990659 -0.1 0  0.7999999999992116 -0.1 0  0.8499999999993573 -0.1 0  0.8999999999994526 -0.1 0  0.949999999999584 -0.1 0  0.9999999999997226 -0.1 0  1.049999999999861 -0.1 0  1.1 -0.0500000000000906 0  1.1 -1.730560139634463e-13 0  1.1 0.04999999999975802 0  1.1 0.09999999999961506 0  1.1 0.1499999999994613 0  1.1 0.199999999999302 0  1.1 0.2499999999991446 0  1.1 0.2999999999990088 0  1.1 0.3499999999988296 0  1.1 0.3999999999986936 0  1.1 0.4499999999985143 0  1.1 0.4999999999984002 0  1.1 0.5499999999985247 0  1.1 0.5999999999986493 0  1.1 0.6499999999987955 0  1.1 0.6999999999989417 0  1.1 0.7499999999990659 0  1.1 0.7999999999992116 0  1.1 0.8499999999993573 0  1.1 0.8999999999994526 0  1.1 0.949999999999584 0  1.1 0.9999999999997226 0  1.1 1.049999999999861 0  1.05000000000004 1.1 0  1.000000000000079 1.1 0  0.9500000000001624 1.1 0  0.9000000000003032 1.1 0  0.850000000000444 1.1 0  0.8000000000005848 1.1 0  0.7500000000007256 1.1 0  0.7000000000008665 1.1 0  0.6500000000010508 1.1 0  0.6000000000012352 1.1 0  0.5500000000014196 1.1 0  0.500000000001539 1.1 0  0.4500000000014195 1.1 0  0.4000000000013 1.1 0  0.3500000000011588 1.1 0  0.3000000000010178 1.1 0  0.2500000000008986 1.1 0  0.2000000000007579 1.1 0  0.1500000000006174 1.1 0  0.1000000000005272 1.1 0  0.05000000000040083 1.1 0  2.671196597248127e-13 1.1 0  -0.0499999999998666 1.1 0  0.5247398518212827 0.5452810719319473 0  0.5487909779801968 0.5293384833741387 0  0.5562144426090481 0.5013013767761301 0  0.5570800516315578 0.4728638088385974 0  0.5561671121064573 0.4445830267661907 0  0.5532395909697974 0.4164417186399435 0  0.5478883659983094 0.3884764325717797 0  0.5392734073842389 0.3610231430948651 0  0.5253319976736388 0.3353924409667268 0  0.5023575761012445 0.3175524781307815 0  0.4743147283039143 0.317491446238437 0  0.4479280635367874 0.3252936046350519 0  0.4227671901860687 0.3354464080111031 0  0.3983095480753505 0.3468820280204732 0  0.3744115014747341 0.3592045634420092 0  0.3509831452337397 0.3722224360942417 0  0.3279676547394369 0.3858394258247122 0  0.3054050854788931 0.4000656280738162 0  0.2833161940060915 0.4149613903032319 0  0.261863016795315 0.4306950852164961 0  0.241476798332497 0.4477391786759795 0  0.2239512502639066 0.4678164207741204 0  0.2288291910046341 0.4919582583361656 0  0.253440000546663 0.505882588531862 0  0.2795291713219704 0.5156789448491553 0  0.3060147184789683 0.5235528491312441 0  0.3327467680738171 0.5301471747205376 0  0.3596362347768783 0.5357398188078428 0  0.3866632950467737 0.5404180185960371 0  0.4138499721574851 0.5442070032845744 0  0.4411890463917837 0.5470755612028658 0  0.4687434803849491 0.5488515124204186 0  0.5305711009038679 0.432467612755436 0  0.3977955540271173 0.3764483905105432 0  0.4332107910080368 0.5194478985544476 0  0.3293583700075996 0.4137719851834452 0  0.3746648417605848 0.5138081883270537 0  0.4468081873940574 0.3554250907908215 0  0.4841230687787434 0.5232525278674803 0  0.3225290539629714 0.5029646916253034 0  0.519849625857717 0.3796794269349545 0  0.2869582292362071 0.443302841751035 0  0.5311384137300288 0.4864989394827936 0  0.494672867770659 0.3406013449966371 0  0.2722275144377358 0.4872961258576572 0  0.2478085286414237 0.4764556344422781 0  0.5283780268257366 0.5146757588752344 0  0.5023412233941039 0.5005679938989083 0  0.5088054089035984 0.4703106876101231 0  0.4827172159180474 0.4800704346029545 0  0.4867051962829534 0.4523577751768063 0  0.4608400096265582 0.4615468301311814 0  0.4651760079002965 0.4329995002932236 0  0.4390460990874273 0.442522508447449 0  0.4430826464393881 0.4139760017507118 0  0.4171356128124851 0.4233739691848949 0  0.4130905253655773 0.4519920096639677 0  0.3913445643046266 0.4326539650351039 0  0.4692414479742736 0.4044866234846146 0  0.3876022457397219 0.4609502726830002 0  0.3668964077639335 0.4419708489242469 0  0.3634861651031949 0.4688908543963421 0  0.4086180314845288 0.4806990910034102 0  0.371450036715645 0.4143238814744397 0  0.342810592179652 0.4509172795962649 0  0.4540465838932617 0.4923233493928795 0  0.4461081373200892 0.385391779706141 0  0.4700547913934621 0.3757347454024111 0  0.4899793950518042 0.4251857482079276 0  0.4347376140658392 0.4711997584725549 0  0.4978789901491715 0.3975422131792406 0  0.4205028327508845 0.3951107341672164 0  0.3954468758803775 0.4047142122800971 0  0.4043624296700231 0.5116519749642024 0  0.3485135715089027 0.5090769381683334 0  0.4594731703277249 0.5221939021162414 0  0.3073245423163142 0.4273870896832768 0  0.3147937134743539 0.4551882804010018 0  0.4220844294644069 0.3657992717066965 0  0.3384795201015375 0.4801317192662171 0  0.2972263368083504 0.4967760957228458 0  0.2668285753306425 0.459305603425711 0  0.3733818932207782 0.3873512163263266 0  0.5270144616030618 0.4058009439425765 0  0.5323940395751505 0.4588510997752535 0  0.3848393039833808 0.4878172615383788 0  0.2902887278125324 0.4704232032459977 0  0.5149869357646985 0.3576165687530201 0  0.350689235889055 0.3995477692093345 0  0.4715882202962264 0.3476656141576594 0  0.4282892578695023 0.4949432645461844 0  0.4952733643255167 0.3688296871452749 0  0.5102329742924739 0.4440832830571643 0  0.3126931693776525 0.4811144812672571 0  0.3488047682891489 0.4252920795912958 0  0.4757263269290691 0.5026954185336848 0  0.506659734269733 0.5268514428159786 0  0.3620217176177777 0.4919626290396678 0  0.5111699820110537 0.4210256306625226 0  0.3265775514836622 0.4349495645749818 0  0.5597534216569655 0.3694381531924432 0  0.5755400289425565 0.4590896670136687 0  0.3422704535115784 0.5509057019482529 0  0.5105256697754781 0.565164619693224 0  0.9710420236884568 0.6956896636648464 0  0.638145078003039 0.9774258104449416 0  0.4244852867155453 0.5651506666768431 0  0.9796383460271499 0.5356495534018114 0  0.9691499922382881 0.2768985500437748 0  0.2841895905766443 0.9667792805304439 0  0.3287214624164381 0.360724319849444 0  0.4010049136082066 0.3212632085699421 0  0.4380053410791163 0.9748551583172571 0  0.2616723071494861 0.5271542145247912 0  0.05862101212308184 0.7438548844658902 0  0.693936124570202 0.04986313428196339 0  0.2589622558276027 0.4053331703967991 0  0.5702748778904241 0.5183976512111176 0  0.7934299322170626 0.9767774718683748 0  0.2371077906707271 0.05012760814517782 0  0.0571432184000583 0.2384858727397848 0  0.2191236216260943 0.4419250075772494 0  0.546597842430555 0.05514174533013361 0  0.3940786724187831 0.05119162273479966 0  0.8383711113507842 0.04686133682081749 0  0.2075717451963785 0.4818641465310183 0  0.4566376166962154 0.3042171659096541 0  0.05689077433971389 0.5901847079043411 0  0.9781742778843441 0.8426787754040875 0  0.0542556180673786 0.336785175069594 0  0.5640495558049439 0.5432760128812356 0  0.5861729132326162 0.5338088214975737 0  0.5
[...]
<PointData  Scalars="u"> 
<DataArray  type="Float64"  Name="u"  format="ascii">3.0117466453174131e-19  -2.1830954222827941e-19  6.9486824960656424e-19  1.6200172289879855e-19  1.2019627515509501e-20  -7.1580382491771011e-20  -4.7332839623430055e-20  8.8051447886908898e-21  -4.9013018506409944e-01  -3.0438345537815506e-18  -2.3588939868246729e-18  4.3786118882840041e-18  1.4221780042141398e-18  2.2797727788358953e-17  2.3012813705476862e-17  -6.7754521302701432e-19  -1.0346229879314722e-17  -1.3520979218112619e-17  2.5695630353785694e-18  -1.0534572161359547e-17  -5.2669859313853974e-18  4.5155050207137982e-18  1.0426430983485375e-17  -8.2238642881447119e-18  -2.8379385583856681e-18  6.9661086579494174e-18  9.8404209451550428e-18  2.0496253585406849e-18  -1.0048677059516321e-17  1.3327134462339253e-18  7.6208581585222473e-18  -1.4480989319557635e-19  2.7159897079746606e-18  -9.7811699462235871e-18  2.0646397304678291e-17  6.3900896833783496e-18  5.4156109784275292e-18  -3.5365144653823748e-18  -7.6736314452791347e-18  -7.6592261517854460e-18  -3.1625680201807417e-17  -2.0156834018264712e-17  1.0280270922648638e-17  5.4328657105459029e-18  4.5731080053246361e-18  -2.8508537902360614e-18  -4.4191948269242790e-19  2.5113136017846544e-18  -6.0508303884616223e-18  3.3327211184143229e-18  5.4391706038070553e-19  1.0230864589009890e-17  2.3325454842743746e-17  -4.0914050420238202e-18  -1.9941617036406656e-18  -5.9831956138540848e-18  4.3545874349760305e-18  -5.6620265462899486e-18  -8.3278291122397576e-18  -7.1554443459587693e-18  3.5406857880742487e-18  -3.8523106219105467e-18  -1.6691912586352420e-18  3.8453309107166774e-18  2.3906274356451001e-18  9.3694793050383318e-19  -3.2544603399826699e-18  6.3901747498009841e-18  -3.7758106879838726e-18  -7.8729043600950755e-18  2.6805102384844628e-18  1.2212769048078787e-17  9.8633680472198098e-18  -2.3827347750515840e-17  -1.4501896281156501e-17  4.7846329634335576e-18  -5.9008874340998271e-18  6.8606865776890489e-20  1.4660940008602443e-17  1.6748975147657762e-17  6.3099701381129466e-19  -6.1263310047447092e-18  7.9159275036326344e-18  -1.8874438173688329e-18  1.6038257547242906e-18  2.5190396329145714e-20  -4.2640589177629161e-20  -5.0917844035792383e-19  -2.6270157335514660e-19  2.3259700584576461e-19  6.9007296606457462e-19  3.1902268542394481e-18  2.8719440965608798e-18  2.5027994944981281e-19  -1.8569006266598019e-18  -1.1671292396128484e-18  -4.2986064657557469e-19  -1.0380096773983636e-18  -9.9108155326503526e-19  1.0222497728369597e-18  1.0224841059458273e-18  -7.3996445855362967e-19  -5.3745239749660874e-19  1.0203240945732239e-18  1.3566280614734526e-18  3.3365896668576696e-19  -8.7147308690010937e-21  -1.4964980728181832e-20  2.1072756069138080e-19  -3.7406196836618602e-19  -1.1352589519051944e-18  9.8401063717958907e-20  8.4883683297146348e-19  5.3435337801776810e-19  -4.8509428203198733e-19  1.1676887595274667e-19  1.7457387141350628e-18  1.6554534577724540e-18  5.2479865375445396e-19  -8.5644701177244640e-19  -9.8919841986896685e-19  -1.5557869460278668e-18  -4.3285657045909164e-18  -1.5695842458536012e-18  1.3619613221761013e-18  1.0588365504076302e-18  3.5978469754929278e-19  1.7119336052790215e-19  -2.4768287230559013e-19  7.3451656619044715e-20  -1.5951210511670341e-21  -6.4888266457376232e-20  2.0155466908294525e-19  -3.5405294903111689e-20  -2.0682503516367546e-19  1.1198436994408772e-19  2.1837996669690955e-19  1.8780621513376377e-18  2.1524971176041151e-18  6.4452234138101831e-20  -8.1541794363837170e-19  -3.6773444713837988e-19  3.0948374600238892e-19  -6.7984535436374224e-19  -1.6811268887571301e-18  -3.7609835609594409e-20  -6.2656919528847466e-20  -3.5518132708704277e-19  -3.1714681477208752e-20  7.8909651393883870e-19  2.9414998670458471e-19  1.5466652036996966e-19  6.3616301706378222e-20  9.0929449357178858e-21  8.8490989272502238e-20  -1.0836686877840249e-19  -3.4934426337116258e-20  4.9727681244673427e-19  -4.0881189316132517e-19  -8.6312591706902439e-19  2.9084620859742760e-19  1.9546032525382315e-18  7.5967766248174815e-19  -2.7666145294519418e-18  -2.0654630522940403e-18  1.9532441510258965e-19  -4.2533830841865982e-19  -7.4197868175748137e-20  1.8692998416673311e-18  2.3276143237813086e-18  1.1744070549464019e-19  -5.5572751313490001e-19  4.4013538489336590e-19  2.3970515164141927e-19  -4.9592757413605338e-20  6.7016089011544389e-20  -4.5051869355336104e-20  -4.9953771619419352e-01  -5.0304558089611451e-01  -4.9722904965912018e-01  -4.8885462049731065e-01  -4.8061369852244940e-01  -4.7271058425166634e-01  -4.6457861689475244e-01  -4.5568502729288429e-01  -4.4466137897989799e-01  -4.3156687470220900e-01  -4.2077624150126292e-01  -4.1291168515887067e-01  -4.0643791510245031e-01  -4.0065865011503377e-01  -3.9518011019596111e-01  -3.8977689098796497e-01  -3.8422012816189388e-01  -3.7816690918781715e-01  -3.7166149691368111e-01  -3.6503407072116378e-01  -3.5756593769203926e-01  -3.5156754068383289e-01  -3.6072525782232279e-01  -3.7994178822534497e-01  -3.9581252958646151e-01  -4.0932858000081940e-01  -4.2220771428736270e-01  -4.3422508787866620e-01  -4.4570289230779081e-01  -4.5692767316936994e-01  -4.6799535913839496e-01  -4.7893492725088838e-01  -4.4411285419658958e-01  -3.8360916382314253e-01  -4.3013009026851023e-01  -3.6923522524693597e-01  -4.0812070540183643e-01  -3.9831339936358029e-01  -4.5393800637971699e-01  -3.8769507350344384e-01  -4.3076241390408093e-01  -3.6327599807905242e-01  -4.6151533318777926e-01  -4.1738867250811890e-01  -3.6851250673827762e-01  -3.5649258705567183e-01  -4.7160856982515426e-01  -4.5179399365165579e-01  -4.4213627163341096e-01  -4.3106925716679489e-01  -4.2151119119080477e-01  -4.0990176130389117e-01  -4.0381405568021456e-01  -3.9468003867223755e-01  -3.9241609072713718e-01  -3.8544914857101281e-01  -3.8843006956748349e-01  -3.7949704702980941e-01  -4.0370569272809581e-01  -3.8477619006664737e-01  -3.7578961223229457e-01  -3.8263085968158950e-01  -4.0002121533179280e-01  -3.7584042423003577e-01  -3.7380938856194479e-01  -4.2233214878597680e-01  -3.9466901301747981e-01  -4.0559409160930487e-01  -4.1727061062132037e-01  -4.0416191158201292e-01  -4.1937551368101861e-01  -3.8664378562511204e-01  -3.8056503950370085e-01  -4.1569693974868610e-01  -3.9798964052283470e-01  -4.4199615848758950e-01  -3.6512325096437093e-01  -3.7042922060349265e-01  -3.8998942446152979e-01  -3.8163822483310478e-01  -3.7889094244012650e-01  -3.6041134369150579e-01  -3.7814580940451081e-01  -4.3723029379997486e-01  -4.5223819332744275e-01  -3.9661319432686581e-01  -3.6927717172653085e-01  -4.2705776702938092e-01  -3.7356132238881051e-01  -4.0797086767615642e-01  -4.1418523793914575e-01  -4.1770528162459203e-01  -4.3398751376497885e-01  -3.7719834678169956e-01  -3.7181195998557026e-01  -4.3881519055120188e-01  -4.6657569499280943e-01  -3.9268010037778345e-01  -4.2979722419330402e-01  -3.6877724784251203e-01  -4.7878467993398283e-01  -5.0508508157059184e-01  -4.4766343180825358e-01  -5.1303280224778391e-01  -7.7066273193697410e-02  -6.3312283176755038e-02  -4.8271811985019419e-01  -5.9690634329577615e-02  -7.7766704679703036e-02  -8.3652835174951770e-02  -3.9995535545866867e-01  -4.1588965124355953e-01  -7.2067144286463353e-02  -4.0429209159087298e-01  -1.3211684641751592e-01  -1.2344410652104541e-01  -3.7779606092741891e-01  -5.1910227381498475e-01  -5.3124844939780348e-02  -1.0690724571807146e-01  -1.1913293514441556e-01  -3.5960375027261632e-01  -1.4358726593297658e-01  -1.2854701276053274e-01  -8.8197313220764864e-02  -3.5793850908414554e-01  -4.2747240745985365e-01  -1.4217268627991017e-01  -4.3892521521332654e-02  -1.2701451966403438e-01  -5.2293887212815615e-01  -5.2478656704155857e-01  -5.2829513132165529e-01  -5.3008905863742561e-01  -5.3295175179713250e-01  -5.3302603541955207e-01  -5.3423151265819591e-01  -5.3126097545117990e-01  -5.2956181830581905e-01  -5.3246028198025319e-01  -5.2977941347552293e-01  -5.2406426032294706e-01  -5.2600940663672513e-01  -5.2135709793013396e-01  -5.1374959248123786e-01  -5.1365206120210083e-01  -4.9718144572456496e-01  -4.9511036619281895e-01  -4.9458130527573635e-01  -5.0956681683205618e-01  -4.8760026514283472e-01  -5.0190155927990443e-01  -4.7697057583273517e-01  -4.9098092036887087e-01  -4.6331119626161893e-01  -4.7727384067022394e-01  -4.7391603118167330e-01  -4.6957412454028602e-01  -4.4653084810114929e-01  -4.6020847155907940e-01  -4.5705397824562072e-01  -4.4319383497534076e-01  -4.3651662434346195e-01  -4.2613828963914729e-01  -4.3937753527180495e-01  -4.0528099109495863e-01  -3.9635369830525186e-01  -4.2195305237674779e-01  -4.6672784465661010e-01  -4.4525015392901773e-01  -4.1468995624155275e-01  -4.1925814846500936e-01  -3.8555767465472285e-01  -3.7772762904132401e-01  -3.9725534295039078e-01  -4.4340911443827963e-01  -4.1560087238286414e-01  -4.0637139780372733e-01  -4.9864113263424531e-01  -4.3452164182746383e-01  -4.0352024022525484e-01  -4.0502171683290072e-01  -3.4944131829858249e-01  -8.3358852620888851e-02  -3.2730971897213446e-01  -6.6591705078990579e-02  -5.3762253232667145e-02  -5.9145605487263914e-02  -6.3942118928413366e-02  -4.5652691855282485e-01  -3.6695491310342387e-01  -3.4724673828441788e-01  -3.5584747684019141e-01  -3.2994675110489374e-01  -3.2194461333559754e-01  -3.3749855054753874e-01  -5.3026078624815176e-01  -3.6294637596750789e-01  -3.8111215692149136e-01  -3.8118598185595320e-01  -9.2913395234562476e-02  -3.6419884230191901e-01  -3.5676233101864768e-01  -4.1857443002831962e-01  -3.6569012385152400e-01  -3.4619673633307629e-01  -2.9687946151093453e-01  -3.3775945224652049e-01  -5.1785359747650461e-01  -2.9835078312471169e-01  -2.9648251306973272e-01  -4.4611428099345773e-01  -4.1070072700493376e-01  -3.6136399483626769e-01  -3.6761628729524265e-01  -4.1521707768734384e-01  -3.6916529481651494e-01  -4.1596181774552804e-01  -3.6755624622361277e-01  -4.1340773315755130e-01  -3.6115388470134269e-01  -4.0677938916676498e-01  -3.5259831001261333e-01  -3.9685899785747397e-01  -4.4257086565751247e-01  -4.3174045677228873e-01  -3.8561297335674788e-01  -4.1851186231619436e-01  -4.5659379390150301e-01  -4.4224939763375887e-01  -4.0244841274876247e-01  -4.2376219045584979e-01  -3.8259282150063656e-01  -3.9948559099248354e-01  -4.3513782160222197e-01  -3.5908835297635339e-01  -4.0697846351842970e-01  -4.5128626971861174e-01  -4.3716254971052310e-01  -4.6533578047631841e-01  -4.0533212837142046e-01  -4.3118835058560651e-01  -3.9525373354574189e-01  -4.1830392742239558e-01  -3.7353874008194449e-01  -3.5521212728646723e-01  -4.5235852491832040e-01  -3.7734211084614444e-01  -4.0407672485299667e-01  -3.5173232433383395e-01  -3.2427148982915227e-01  -3.1307179287529729e-01  -4.2072110903761714e-02  -2.7122731656360233e-01  -2.4036933848109668e-01  -4.5436086188479735e-01  -4.4018228030664319e-01  -4.4451807241039087e-01  -4.3289672094525733e-01  -4.5548419620174102e-01  -2.5476066655101925e-01  -3.0701753475018168e-01  -3.1338653473895239e-01  -2.8058043189407644e-01  -3.0452521659452547e-01  -5.2625514690052300e-01  -2.9332102695599271e-01  -3.4281382340462302e-01  -3.4450971804637409e-01  -2.5395753289692646e-01  -3.7642062133925958e-01  -3.1557180697725540e-01  -3.5365679813602358e-01  -3.7535129570564268e-01  -3.3871085207822105e-01  -3.1353678194786988e-01  -2.9769946291759614e-01  -2.8705655842151584e-01  -3.4220243300046038e-01  -8.5971183505292301e-02  -2.7961264883399845e-01  -3.0917629683679287e-01  -2.6409382112290053e-01  -3.0227055789669122e-01  -3.7593589497503227e-01  -4.4618385067342831e-01  -2.7195035224263753e-01  -2.8610586892686912e-01  -3.0405960673172389e-01  -2.7434691273764977e-01  -2.1208045729728198e-01  -2.2976460033402130e-01  -1.8476157175739924e-01  -5.3101281023489522e-01  -2.4874353232558055e-01  -2.6282777848816558e-01  -3.1778452679324276e-01  -4.7272186160487828e-01  -4.8510558972938189e-01  -4.9405849812379599e-01  -5.0414663427709283e-01  -5.0689446570709962e-01  -5.1498005075843978e-01  -5.1205763763956669e-01  -5.1156933897179913e-01  -5.0358009627654821e-01  -5.0366214987180236e-01  -4.9606886776492581e-01  -4.9408097087455416e-01  -4.8720175620707185e-01  -3.2202585311331766e-01  -3.4656288487962250e-01  -2.9105364500578529e-01  -4.5297013753661672e-02  -5.0233311213074616e-02  -4.5829104668813780e-01  -4.8840360409541372e-01  -3.8967512483104244e-01  -3.6359807900982261e-01  -3.1621007428980086e-01  -3.3684838751355328e-01  -3.7687440093821395e-01  -3.5311772480532322e-01  -3.9103837764327842e-01  -3.6586184405680705e-01  -3.9336749432836043e-01  -3.7263736483588772e-01  -3.3909107552693796e-01  -3.4767634193634483e-01  -3.7617495252208394e-01  -3.5157930514548552e-01  -3.7489941817647110e-01  -3.4949862002086024e-01  -3.6834324313645228e-01  -3.4051341307103900e-01  -3.1717802121463023e-01  -3.5584065052296232e-01  -3.2376478983063972e-01  -3.0610653412711025e-01  -3.3616926950755188e-01  -2.9809986338612038e-01  -2.8541586355502058e-01  -3.9625079498369459e-01  -3.7893153475809688e-01  -3.0323726633118808e-01  -4.6711672323318715e-01  -2.2473994865170363e-01  -2.2280561132279464e-01  -2.3280676620384783e-01  -2.3725077191472729e-01  -3.0769955398677495e-01  -3.4614245575821151e-01  -2.6080157948128768e-01  -3.7415314968500185e-01  -3.4211339314620648e-01  -2.3844156014361689e-01  -4.8232304806424531e-01  -4.0898581747304336e-01  -4.0830655065176830e-01  -4.9497276815354024e-01  -5.1847776544060276e-01  -2.5222495389045818e-01  -1.7249875712773516e-01  -4.6909597387292856e-01  -3.4708727471637835e-02  -3.2199269335759423e-01  -2.8806385163968362e-01  -2.5751067891964252e-01  -2.2244586527829321e-01  -3.3309941354645456e-01  -4.4587296240532814e-01  -2.9030194982286633e-01  -2.4825758240345844e-01  -2.6804543423570032e-01  -2.0945741298000958e-01  -2.1675415067484519e-01  -1.6719764562637551e-01  -1.6170166722020868e-01  -1.9239556160466653e-01  -1.6702069102186887e-01  -1.7464933806595567e-01  -2.4099208142000692e-01  -2.1315431422297473e-01  -2.7666896559641840e-01  -2.0052329427574478e-01  -2.6242056935428748e-01  -1.8561998768432614e-01  -2.4733595638973976e-01  -3.8901371776232435e-01  -3.9979272272343935e-01  -3.8541989686350203e-01  -4.0925053146210061e-01  -4.1920335164084621e-01  -4.2686780372727795e-01  -4.3687310677226038e-01  -4.4179341020503432e-01  -4.5262806108065262e-01  -4.5588499817239603e-01  -4.6656094677677035e-01  -4.6924522295940213e-01  -4.7888135688925143e-01  -4.8188712775789005e-01  -4.9125482674186727e-01  -4.9422488404483067e-01  -5.0230681836538504e-01  -5.0617881239282303e-01  -5.1155557428629772e-01  -5.1502905858935311e-01  -4.9585725863722541e-01  -5.0866204013640193e-01  -5.1746667224392373e-01  -5.2204858082000227e-01  -5.2475115938702477e-01  -3.2676878386394287e-01  -2.3812515253909619e-01  -3.8716277491179968e-01  -2.0686007836961343e-01  -4.7087815922370280e-01  -4.3045333596387952e-01  -2.6805930989587157e-01  -2.7820127108887849e-01  -1.8312325499227566e-01  -3.3301848112945204e-01  -4.4599179948379347e-01  -1.8300350652284506e-01  -1.9761418514260889e-01  -4.2092307094200576e-01  -4.1728178732040089e-01  -3.5123553583756634e-01  -4.0004950655539878e-01  -4.3091505805609104e-01  -1.1845067508746683e-01  -2.5942119347064546e-01  -1.8159097787799447e-01  -1.1313604494816695e-01  -4.9853818763499375e-01  -1.1610702171157612e-01  -4.8607252351215813e-01  -2.0495198076062665e-01  -2.2830935155573140e-01  -2.7986968984376426e-01  -2.4025518779581173e-01  -1.6049819730799925e-01  -5.0092412168162725e-01  -2.6380535603055838e-01  -4.8657123495899712e-01  -4.7415608270095105e-01  -5.2030673988168163e-01  -4.3282265044570267e-01  -1.8019774610555675e-01  -1.1155686977053922e-01  -5.0167788978659111e-01  -1.7044504161465243e-01  -2.4294309813861406e-01  -1.6153836977682579e-01  -5.2772141035122055e-01  -5.1345980673923053e-01  -5.1201465405732516e-01  -4.1967791426332834e-01  -4.1268021090725332e-01  -4.1508535561960497e-01  -1.8131750082488238e-01  -2.1764451466326393e-01  -1.4485787264790229e-01  -1.8381810501909787e-01  -4.0720922121164149e-01  -1.7026307245210612e-01  -2.2950581916695381e-01  -1.5150342395147823e-01  -2.0660391571612025e-01  -2.7090344730458321e-01  -2.4247460006421234e-01  -1.7951786116500756e-01  -2.0386370198100351e-01  -2.6045269342839394e-01  -1.4469067201483524e-01  -2.0966921113277839e-01  -2.6051947426624972e-01  -1.9401054484189215e-01  -2.4247562929907834e-01  -3.0934186050722662e-01  -5.1049315222344083e-01  -3.6896227064799109e-01  -3.6896929170771864e-01  -3.7829438865505205e-01  -3.5630376043223566e-01  -4.1955475509871587e-01  -3.9057486558379273e-01  -4.0119438746896474e-01  -3.9359208124036371e-01  -3.8408205816483554e-01  -3.9217546881230164e-01  -4.0133404635006348e-01  -4.6906688961552706e-01  -2.5080578503485229e-01  -2.0823783805282015e-01  -2.5278395765249645e-01  -2.1706980923171884e-01  -1.5787347043211558e-01  -4.5776965221245464e-01  -4.8794928873589871e-01  -6.8457424119736501e-02  -1.7434052201568803e-01  -3.6716646339100928e-01  -1.2418409691820627e-01  -2.0274532264529357e-01  -1.8492949384173069e-01  -1.0705071379686389e-01  -1.6608450060895205e-01  -2.2449461626969111e-01  -1.9020805905245597e-01  -1.3591808021223387e-01  -7.5756850112000021e-02  -2.4853242743271287e-01  -4.6823247737485546e-01  -4.8408110292611567e-01  -4.8435322010445847e-01  -4.5708389615464368e-01  -1.6393080113116923e-01  -3.8587716107152137e-01  -3.2850898632058895e-01  -3.2910666027175028e-01  -4.2127391445158313e-01  -4.6868675361624090e-01  -4.8253876956157288e-01  -4.5153601466897308e-01  -4.8393031172673040e-01  -4.8455683422844192e-01  -5.0701215681853640e-01  -5.0398758963776524e-01  -5.0650665249666582e-01  -4.8229638235668176e-01  -5.0382984527345198e-01  -5.2111539085090397e-01  -4.7761182346313152e-01  -5.1914229484432661e-01  -5.0965520940538500e-01  -5.2161501452591463e-01  -6.6557588631038347e-02  -1.4589928902863464e-01  -4.9903846086843145e-01  -4.0025561296767287e-01  -4.3828501435751566e-01  -1.0024354533459702e-01  -2.9813108970310698e-01  -7.1893700870541727e-02  -7.8057586102935742e-02  -3.0615925021584750e-01  -2.8562735405519279e-01  -1.2629394840335137e-01  -1.2398389034754982e-01  -1.9296457013484869e-01  -3.9519288650647871e-01  -4.1092658695535150e-01  -4.0568805395980068e-01  -4.0700999722785774e-01  -4.1131988049385870e-01  -5.1712944649999393e-01  -1.0084924470311392e-01  -1.6034634467416467e-01  -1.6088024789347211e-01  -4.4317030854102374e-01  -1.3195753271646959e-01  -2.2880117612071216e-01  -2.1350956504232230e-01  -1.0573144184037941e-01  -5.2313912735000112e-01  -2.1566660038014251e-01  -4.3739100084191268e-01  -5.2125875983749381e-01  -6.5773029164824179e-02  -6.8970198417358630e-02  -6.8914898239235689e-02  -3.0105738652033104e-01  -4.7752684715388044e-01  -6.9884137300133736e-02  -3.7758785291670593e-01  -2.9218195377511386e-01  -1.3709086964118736e-01  -3.4029273450077624e-01  -4.9849863687573805e-02  -3.0909674480328064e-01  -2.1422905391240182e-01  -7.0774946402024086e-02  -5.0458447934766865e-02  -1.3165848708437158e-01  -1.0074038487008574e-01  -7.1322190009460176e-02  -4.3389102874300439e-01  -3.6707907243969506e-01  -3.2941812712228496e-01  -4.8171239614990469e-01  -3.8328805306929470e-01  -4.0131073878118262e-02  -1.0170548825593333e-01  -1.2306355343423833e-01  -3.9362461077904615e-01  -3.4155040889748151e-01  -4.9549754592337064e-01  -4.9427693163869073e-02  -1.4788565145069271e-01  -1.3317806836750784e-01  -1.5684921579614622e-01  -2.4622740463359485e-01  -3.1182945460348271e-01  -6.3263490696164937e-02  -4.5864991478801098e-01  -3.1024683714257567e-01  -5.2480548484806633e-01  -5.1168707390873824e-01  -4.5399035763328693e-01  -2.4944286582989586e-01  -3.6627273254739035e-01  -1.9867716440480407e-01  -4.6013948037765523e-01  -3.1710447176449791e-01  -3.4829144580220767e-01  -5.2297051966161479e-01  -1.6554172799916350e-01  -2.1660030204854464e-01  -3.0750408696520792e-01  -2.8778828776298199e-01  -4.2617978967705972e-01  -3.72971021127