<?xml version="1.0"?>
<VTKFile type="UnstructuredGrid"  version="0.1"  >
<UnstructuredGrid>
<Piece  NumberOfPoints="1277" NumberOfCells="2456">
<Points>
<DataArray  type="Float64"  NumberOfComponents="3"  format="ascii">0 0 0  0 1 0  1 1 0  1 0 0  1.1 -0.1 0  -0.1 -0.1 0  1.1 1.1 0  -0.1 1.1 0  0.5068966338038516 0.5049830034830355 0  0.6389347514594574 0.7190611768286207 0  0 0.9499999999997918 0  0 0.8999999999995836 0  0 0.8499999999996529 0  0 0.7999999999999998 0  0 0.7500000000003466 0  0 0.7000000000006934 0  0 0.6500000000010401 0  0 0.6000000000013869 0  0 0.5500000000017335 0  0 0.5000000000020587 0  0 0.4500000000018723 0  0 0.4000000000016644 0  0 0.3500000000014564 0  0 0.3000000000012483 0  0 0.2500000000010403 0  0 0.2000000000008322 0  0 0.1500000000006241 0  0 0.100000000000416 0  0 0.05000000000020799 0  0.04999999999989965 0 0  0.09999999999981467 0 0  0.1499999999997036 0 0  0.1999999999995579 0 0  0.2499999999994121 0 0  0.2999999999992664 0 0  0.3499999999991206 0 0  0.3999999999989749 0 0  0.4499999999988292 0 0  0.4999999999986943 0 0  0.5499999999988151 0 0  0.5999999999989468 0 0  0.6499999999990784 0 0  0.69999999999921 0 0  0.7499999999993417 0 0  0.7999999999994734 0 0  0.8499999999996051 0 0  0.8999999999997368 0 0  0.9499999999998684 0 0  1 0.04999999999989965 0  1 0.09999999999981467 0  1 0.1499999999997036 0  1 0.1999999999995579 0  1 0.2499999999994121 0  1 0.2999999999992664 0  1 0.3499999999991206 0  1 0.3999999999989749 0  1 0.4499999999988292 0  1 0.4999999999986943 0  1 0.5499999999988151 0  1 0.5999999999989468 0  1 0.6499999999990784 0  1 0.69999999999921 0  1 0.7499999999993417 0  1 0.7999999999994734 0  1 0.8499999999996051 0  1 0.8999999999997368 0  1 0.9499999999998684 0  0.9499999999997918 1 0  0.8999999999995836 1 0  0.8499999999996529 1 0  0.7999999999999998 1 0  0.7500000000003466 1 0  0.7000000000006934 1 0  0.6500000000010401 1 0  0.6000000000013869 1 0  0.5500000000017335 1 0  0.5000000000020587 1 0  0.4500000000018723 1 0  0.4000000000016644 1 0  0.3500000000014564 1 0  0.3000000000012483 1 0  0.2500000000010403 1 0  0.2000000000008322 1 0  0.1500000000006241 1 0  0.100000000000416 1 0  0.05000000000020799 1 0  -0.1 1.05000000000004 0  -0.1 1.000000000000079 0  -0.1 0.9500000000001624 0  -0.1 0.9000000000003032 0  -0.1 0.850000000000444 0  -0.1 0.8000000000005848 0  -0.1 0.7500000000007256 0  -0.1 0.7000000000008665 0  -0.1 0.6500000000010508 0  -0.1 0.6000000000012352 0  -0.1 0.5500000000014196 0  -0.1 0.500000000001539 0  -0.1 0.4500000000014195 0  -0.1 0.4000000000013 0  -0.1 0.3500000000011588 0  -0.1 0.3000000000010178 0  -0.1 0.2500000000008986 0  -0.1 0.2000000000007579 0  -0.1 0.1500000000006174 0  -0.1 0.1000000000005272 0  -0.1 0.05000000000040083 0  -0.1 2.671196597248127e-13 0  -0.1 -0.0499999999998666 0  -0.0500000000000906 -0.1 0  -1.730560139634463e-13 -0.1 0  0.04999999999975802 -0.1 0  0.09999999999961506 -0.1 0  0.1499999999994613 -0.1 0  0.199999999999302 -0.1 0  0.2499999999991446 -0.1 0  0.2999999999990088 -0.1 0  0.3499999999988296 -0.1 0  0.3999999999986936 -0.1 0  0.4499999999985143 -0.1 0  0.4999999999984002 -0.1 0  0.5499999999985247 -0.1 0  0.5999999999986493 -0.1 0  0.6499999999987955 -0.1 0  0.6999999999989417 -0.1 0  0.7499999999990659 -0.1 0  0.7999999999992116 -0.1 0  0.8499999999993573 -0.1 0  0.8999999999994526 -0.1 0  0.949999999999584 -0.1 0  0.9999999999997226 -0.1 0  1.049999999999861 -0.1 0  1.1 -0.0500000000000906 0  1.1 -1.730560139634463e-13 0  1.1 0.04999999999975802 0  1.1 0.09999999999961506 0  1.1 0.1499999999994613 0  1.1 0.199999999999302 0  1.1 0.2499999999991446 0  1.1 0.2999999999990088 0  1.1 0.3499999999988296 0  1.1 0.3999999999986936 0  1.1 0.4499999999985143 0  1.1 0.4999999999984002 0  1.1 0.5499999999985247 0  1.1 0.5999999999986493 0  1.1 0.6499999999987955 0  1.1 0.6999999999989417 0  1.1 0.7499999999990659 0  1.1 0.7999999999992116 0  1.1 0.8499999999993573 0  1.1 0.8999999999994526 0  1.1 0.949999999999584 0  1.1 0.9999999999997226 0  1.1 1.049999999999861 0  1.05000000000004 1.1 0  1.000000000000079 1.1 0  0.9500000000001624 1.1 0  0.9000000000003032 1.1 0  0.850000000000444 1.1 0  0.8000000000005848 1.1 0  0.7500000000007256 1.1 0  0.7000000000008665 1.1 0  0.6500000000010508 1.1 0  0.6000000000012352 1.1 0  0.5500000000014196 1.1 0  0.500000000001539 1.1 0  0.4500000000014195 1.1 0  0.4000000000013 1.1 0  0.3500000000011588 1.1 0  0.3000000000010178 1.1 0  0.2500000000008986 1.1 0  0.2000000000007579 1.1 0  0.1500000000006174 1.1 0  0.1000000000005272 1.1 0  0.05000000000040083 1.1 0  2.671196597248127e-13 1.1 0  -0.0499999999998666 1.1 0  0.6648409058862671 0.7126942286547909 0  0.6890651686941718 0.7042978755731327 0  0.7112763382795918 0.6931678678053399 0  0.7306822255211878 0.6789715352530074 0  0.7477887441119876 0.6624364299480722 0  0.7623051365174126 0.6432008828847409 0  0.77452285797485 0.621924242387546 0  0.7840760318869595 0.5988212489396597 0  0.7913516107675981 0.5744514506651446 0  0.7965644278569929 0.5491944988752342 0  0.7995869449026713 0.5237263078953548 0  0.8006625626325615 0.4980632915424977 0  0.7998409634143256 0.4725076130233235 0  0.7968123484270037 0.4472080054663277 0  0.7915346611991275 0.422884225693308 0  0.784630654632786 0.3995255178458543 0  0.7752776862309098 0.3776829330643339 0  0.7636291449934065 0.3577224192479099 0  0.7498697505933825 0.3398093334271164 0  0.7338438113624173 0.3242483794548593 0  0.7156178658243467 0.3099643033989031 0  0.6938589295751481 0.2986530807203256 0  0.6692590781526301 0.2896163198221366 0  0.6425462905833045 0.2834782786662143 0  0.6141432196058335 0.2796215059660218 0  0.5848949398859227 0.2773984478814119 0  0.5541658388009814 0.2761792029719554 0  0.5232836893242704 0.2758468013202432 0  0.4925992129024541 0.2758125269476463 0  0.4618009619804754 0.2758361990813965 0  0.4312872188971914 0.2759081493659316 0  0.4010834988490117 0.2769764392929085 0  0.3732342422066402 0.2795135061973237 0  0.3476973385822325 0.2841631114464432 0  0.323894608462708 0.2905576138303179 0  0.3034642636599589 0.2988565277030978 0  0.2852339628921652 0.3088992847737372 0  0.2689243907218085 0.3206664310344958 0  0.254448034727084 0.3343463028833888 0  0.2416710122534338 0.3501495015738842 0  0.2305792511335036 0.3679278528467868 0  0.2205337787825115 0.3887069227852357 0  0.2118085548171677 0.4122964973900808 0  0.2052493146646994 0.4385310118534949 0  0.2012121815490604 0.4663151849083593 0  0.1992668222028556 0.494228025901839 0  0.1993100674496865 0.5230219386118354 0  0.2026148651068351 0.5510586351820825 0  0.2082134597197084 0.5785176719385812 0  0.2169227452806931 0.6046739243395783 0  0.228208604664082 0.6271840794238985 0  0.2408140915517445 0.6466624172844309 0  0.2543966860188952 0.6629453833668055 0  0.2690542859601682 0.6768857159433315 0  0.2852533091316387 0.6889485751950301 0  0.3035174471217998 0.6995471107132202 0  0.324227879798608 0.7084184597206153 0  0.3473185135440036 0.7151720696534064 0  0.3726603631463888 0.7199089292411719 0  0.4006811611808394 0.7222322626108696 0  0.42974269451581 0.7239948331820751 0  0.4598876048193344 0.7247284291415983 0  0.4904366014960884 0.7250141311402601 0  0.5211846473569623 0.7253427503543153 0  0.5518615395335683 0.725764763540814 0  0.5826166101877119 0.7258816760440715 0  0.6117388729260316 0.7234464286042482 0  0.2628799215422974 0.6331658589131973 0  0.2447092946933395 0.3982033989501501 0  0.7479146137090413 0.6240108597398543 0  0.7756492697718318 0.5342696277284547 0  0.642777103297321 0.6980235879279961 0  0.6212849969372055 0.2985075569093508 0  0.7230982183945899 0.3458676683303289 0  0.5131272318083875 0.2925633244912875 0  0.2825694893230239 0.3486755374095089 0  0.3305377925963107 0.3142135421574837 0  0.4309702445393594 0.3001116315241114 0  0.3100447338025375 0.6734653213710605 0  0.3716727191964139 0.6966466946539991 0  0.4514788610084982 0.7039478184722417 0  0.537392129066155 0.7072684329796484 0  0.7647397433965786 0.41880191275959 0  0.2213995268856962 0.5549378784655543 0  0.2210765628904376 0.4647646721456001 0  0.7071561065685736 0.6699630207865339 0  0.3753794446642861 0.3024566052457585 0  0.7739512814980444 0.4650859086427434 0  0.593166616147643 0.7058394846485188 0  0.7656704739473278 0.5786952320472465 0  0.7471659593733883 0.3792039021881458 0  0.6889938775830875 0.3189172357103871 0  0.5724611505038194 0.2917599407048543 0  0.2378536723998468 0.5992291907771438 0  0.2140877185904263 0.5077057578088144 0  0.480646167604565 0.7053985662001983 0  0.4735539810885364 0.6839269485411422 0  0.4441239278378794 0.6820653546947834 0  0.46637280902887 0.6613413664919707 0  0.4349977635474909 0.6589809753533784 0  0.4533022068003842 0.6406361903284882 0  0.4803712110901339 0.6357127647861127 0  0.4266471109272449 0.634071303590095 0  0.4507394812233155 0.6078082220460209 0  0.4087039200620829 0.6052900037892815 0  0.5008738386518194 0.6009158172478862 0  0.5423217645901747 0.6295987415165646 0  0.5492793969775067 0.5827454032255247 0  0.5849819482784037 0.6165841096213824 0  0.5962714300573587 0.569710409283774 0  0.6302111863360004 0.6030184149467065 0  0.6427229265923716 0.5557799261991561 0  0.6778661770427198 0.5843705101532757 0  0.6906790617529127 0.5476584613183135 0  0.6561351459299414 0.5202247034025456 0  0.6973022048820889 0.5169372611276277 0  0.67574439432639 0.4866115888011243 0  0.6271349019109183 0.4948707660294009 0  0.6413397868326094 0.4591016034363842 0  0.6890515183723911 0.4465838694118875 0  0.6600694444769346 0.4200167470627107 0  0.6110803084610208 0.4306698740211465 0  0.6263883373622628 0.3968281399299617 0  0.5807101984153479 0.4028609724079296 0  0.5998393897387495 0.3683393928593678 0  0.5486779799333444 0.369469858771894 0  0.5349590954816001 0.4060229510998208 0  0.5007327332414183 0.3700593399021219 0  0.4873082414326122 0.4095440650699377 0  0.4518448702277041 0.371678211184208 0  0.4397484886888858 0.4113100938110009 0  0.663324184643
[...]
<PointData  Scalars="u"> 
<DataArray  type="Float64"  Name="u"  format="ascii">-2.3647777773695349e-18  -3.0446470865196511e-18  -2.8586372045158338e-17  5.8805508339378963e-19  -2.5170351151334678e-20  2.3039924436669259e-19  -7.0643362189372624e-20  2.7125783140830260e-19  1.3194974971148879e-01  -6.4709771109706951e-02  -8.2916094445213776e-18  -3.3127455171038927e-17  2.9444129149933602e-17  2.4061062276685976e-18  -3.0733348217108771e-17  -3.8727287677466122e-17  -1.7719636319413127e-17  8.9372888512378476e-17  -1.7561346161241460e-17  -3.4568408969883505e-17  1.6815399611736132e-17  -2.2482292946864876e-17  -4.7561521042916105e-17  4.5038944658270990e-17  1.1500075332233302e-17  -3.1278709616184415e-17  3.2191382345536350e-18  -3.4998347694770648e-17  3.0271210840020003e-17  -2.1291089429150005e-17  -2.3088287487940622e-17  -1.4541199296531988e-17  -4.6962663772891675e-17  -7.5845103546884165e-18  -2.3905648236385771e-17  5.8194574866572478e-17  -4.0482639409134042e-17  -6.3535835606131067e-17  6.5478777006739418e-17  -1.0164604039118952e-16  -1.1702380956796450e-16  -9.0196309620823100e-17  -2.0340584918174460e-17  -1.2337201906202967e-17  -6.9246136335336529e-17  -2.2007894908620176e-17  -1.2553685027613048e-17  -4.5126271383797799e-18  1.8829172114352183e-17  3.8007426709993664e-17  4.7369003922996428e-18  -1.6961973766208541e-16  1.6494984006517130e-16  1.8158330865718629e-17  -1.6598543314624937e-16  -1.8205265023409497e-17  1.5825242012008885e-16  -1.3285896570300566e-16  -4.1653324691363879e-16  -6.1844093010468823e-17  1.4655526181602890e-16  1.2378162514099665e-16  -2.5908145857649409e-17  1.5869882189876758e-16  2.3184480266866901e-17  1.5913416283032762e-17  -8.4736406704825881e-17  -6.3952137756665127e-18  -3.1922270863693687e-17  -5.9715299818336903e-17  1.4859248711435799e-16  -2.2504063865741327e-18  -2.4167671356771535e-17  2.3677231351876927e-17  -2.3481766511508678e-16  9.8075423543377195e-17  2.3229602594631259e-16  -9.4747092854081701e-17  6.6013233189680921e-17  3.4254331019914161e-16  3.0546040504509017e-16  -1.7837073219872647e-16  7.5481770998775545e-17  -1.0969390592871109e-17  5.3901856202590800e-17  8.6283716042071589e-17  -1.3355653857711026e-19  2.3208103796579333e-19  -3.0836009150492888e-18  -3.3287932210790078e-18  2.6312344607941704e-18  8.4761725256357528e-19  -4.8759144938666729e-18  -7.9304964560793514e-18  1.7165947151273841e-18  9.7996280385905316e-18  1.9453997311945779e-19  -4.9749771754852135e-18  -8.5895718653456425e-20  -2.2404623101040978e-18  -3.7458659669560949e-18  1.6381148808732806e-18  2.2723994618748187e-18  -1.9312761105375675e-18  -2.5316832940095333e-18  -1.4542739612053572e-18  6.1555198041770694e-19  1.5771718265937621e-18  -7.6613499880273011e-19  1.8059943430195258e-19  -5.5379758754043638e-19  -2.3897711056588052e-18  -4.3737025680375787e-18  -4.0039944139419867e-18  -4.6319234635451060e-18  -3.9442734662322401e-18  1.3690058472883102e-18  4.6139415084914994e-18  -5.8095432552497837e-18  -4.4403353689122699e-18  -2.4944011728229697e-19  -1.1116638901303114e-17  -1.8263913918835670e-17  -1.2535955218617843e-17  -1.1729892949434604e-18  -1.2686383063316094e-18  -8.1516864802759836e-18  -4.7210255502891805e-18  -1.0478817867966651e-18  -5.0987685706852795e-19  -1.6822369397982756e-20  6.3387980419928204e-20  -6.9669010471457902e-20  3.4656470840771627e-19  -6.2381581519619406e-19  -1.0860150747071219e-18  -1.5008287710531899e-18  -1.8082241905968766e-18  2.6764038207801499e-18  -1.0278849762754556e-18  -6.1589991303953024e-18  -4.3451991404314047e-18  -2.3714044409944978e-18  -2.4320018320904256e-18  -6.5105011017590366e-18  -5.3701116982149074e-18  4.5078208196796249e-18  1.6502089588352378e-18  -4.1032728873485238e-18  4.0773055093433189e-19  2.7922714087851766e-18  1.9281563555319673e-18  -1.4528582837703807e-18  -8.0098435688207418e-19  2.3701940824483094e-19  -6.9055996524795351e-20  5.3459082797808545e-19  -1.0382381631619758e-18  -2.3664961767628434e-18  -5.6535823606161349e-18  -3.4260732303616681e-18  -1.4380450676079759e-18  -7.0091317555310495e-19  2.2691952307276010e-18  -1.5229197004403733e-18  -1.5914885197695597e-18  1.8442722700859436e-18  -1.5792274301749391e-19  -4.7176535105210028e-18  1.3028805106153017e-18  5.7048478152782346e-18  -3.1046463406519080e-18  -2.2986435092970545e-18  -2.4457999858208343e-18  -2.0467814902789591e-18  1.1969687446407018e-18  9.3368470639282651e-19  -5.5351706673859281e-19  -6.8659198957292417e-02  -7.1642036240702534e-02  -7.3311355862023392e-02  -7.2599072813350096e-02  -7.0295877144683036e-02  -6.6520569191018619e-02  -6.2029297897395599e-02  -5.7133363716079306e-02  -5.2629952670365646e-02  -4.9235748418609046e-02  -4.7157123062311686e-02  -4.6607011593174680e-02  -4.7682716215561943e-02  -5.0062318944970347e-02  -5.3514835844313102e-02  -5.8093886402962515e-02  -6.2790310365687593e-02  -6.7004906675889667e-02  -7.0518602048948734e-02  -7.2714609973797667e-02  -7.3791626376378552e-02  -7.2525021506840495e-02  -6.9591452151870375e-02  -6.5160692900567710e-02  -6.0013122997733717e-02  -5.5134646296687032e-02  -5.1192270410589477e-02  -4.8607631657855289e-02  -4.8007177269429463e-02  -4.9420461552593900e-02  -5.2930352756924350e-02  -5.7826408006816182e-02  -6.2814902824009797e-02  -6.7042592212846475e-02  -7.0817471873473314e-02  -7.2658617816272961e-02  -7.3606807264987445e-02  -7.3062937134633216e-02  -7.1280498860066974e-02  -6.8170313217562450e-02  -6.4184609843982193e-02  -5.9612244951077850e-02  -5.4957070976853435e-02  -5.0774736300457167e-02  -4.7709172367722014e-02  -4.6417986949374913e-02  -4.7627536111842478e-02  -5.0044335460053511e-02  -5.3902029731031184e-02  -5.9053616409476276e-02  -6.3487287758936972e-02  -6.7369494637870536e-02  -7.0192171963938066e-02  -7.1996455160289241e-02  -7.2707044624736386e-02  -7.2315663908342848e-02  -7.0364208558051505e-02  -6.7065617420399209e-02  -6.2636583630529152e-02  -5.7120585393114091e-02  -5.2755996731921800e-02  -4.9384032050140220e-02  -4.7752764651918800e-02  -4.8231563142955139e-02  -5.1160938269671122e-02  -5.6042005509435416e-02  -6.0593458147322053e-02  -2.3456909045024104e-02  -1.7418953814886388e-02  -2.4658011491366358e-02  -1.0263997038084293e-02  -2.3881154606504775e-02  -2.0853678316877261e-02  -2.9112501514263374e-02  -6.6084593875718953e-03  -2.2792663031994724e-02  -2.4671307421348231e-02  -4.5001739870120464e-03  -2.4998960906436107e-02  -1.7871472022224329e-02  -4.9449224654096544e-03  -6.6919617787747432e-03  -1.5405725301803057e-02  -1.6998377511141485e-02  -1.2845807496926990e-02  -3.1092996590906381e-02  -1.7183746846627473e-02  -9.0332803390167100e-03  -1.5194163239472787e-02  -1.5015053279998233e-02  -2.2573130438699976e-02  -3.1274376636834508e-02  -1.4622086157736552e-02  -2.1553142349694267e-02  -1.5525053633805370e-02  -3.6231675265396878e-03  1.9303397433193693e-02  1.7512832672705633e-02  4.2863836673849104e-02  4.0224869587042758e-02  6.2502008486947966e-02  7.0706613082920866e-02  6.3441242187945335e-02  8.9470674073017481e-02  8.0714171888806349e-02  9.8617512454942435e-02  7.4369783390730027e-02  1.0528507080060923e-01  7.5472274240471940e-02  9.9491250813894011e-02  6.7927127891960398e-02  8.4627708388330891e-02  5.2564283512925886e-02  5.8318114522611472e-02  8.5415874444725620e-02  5.9423556433192880e-02  7.4426469804808784e-02  1.0172750411031117e-01  8.9575615751287113e-02  5.7552471070003851e-02  6.4548038649109907e-02  9.3214622250853488e-02  6.8347486043674327e-02  8.8698772017114264e-02  5.7569205835797228e-02  7.1581592096377086e-02  9.9862485924139183e-02  7.6221536681962396e-02  1.0404670945460157e-01  7.3938075338364773e-02  9.9202452858542262e-02  3.8970300219016304e-02  6.5148557631510159e-02  8.2734553696339905e-02  4.2166750072600526e-02  5.7182610797605095e-02  6.4955901030949045e-02  9.7009517976734683e-02  8.1129838268161072e-02  1.0114418023860153e-01  8.2047130158220460e-02  6.2926298148745660e-02  6.2182429964857934e-02  7.2384193275824488e-02  5.0798369379592513e-02  5.4008275635461851e-02  3.9996359266677224e-02  1.1365320487815994e-01  7.3813710341095212e-02  4.9612837841717279e-02  1.1637721759949227e-01  3.8525442666040750e-02  2.7846525387244896e-02  1.8754902550716587e-02  2.1555103165116930e-02  4.8451937369653038e-02  3.7326851917864799e-02  5.4348111611075646e-02  4.7117925056533227e-02  1.6038093883402472e-02  6.6623440338389225e-02  3.1886808423751203e-02  3.7173690185572629e-02  2.9246136209073095e-02  2.8853870243098156e-02  1.2604730044238489e-02  1.3259786679306877e-02  3.2632017164004046e-02  1.5607622707552187e-02  4.6971989061488653e-02  2.2968302201162884e-02  2.7447100228705917e-02  1.8924334954957368e-02  2.7877834018098444e-02  8.9922205920190696e-03  1.1319342840794389e-01  4.3104465416451528e-02  1.4293839631535125e-02  1.5353613974604241e-02  8.7413926555596697e-03  2.7522345722070619e-02  1.7683001793813012e-02  2.5994060647306610e-02  4.9760010904911556e-02  2.8567450473415988e-02  2.1149639087522595e-02  6.8878523006773613e-03  8.8134648591993575e-03  1.4509301009606462e-02  2.3203551764077839e-02  -1.0975121161616294e-02  5.4362975664792937e-02  1.6120151825825445e-02  3.5772960059555832e-02  4.2185680222883984e-03  2.0740862611841751e-03  4.5303247909394245e-02  2.6282275954333578e-02  1.4981637391392790e-02  7.6408465070302934e-03  7.8324198619955827e-03  4.7389596047701425e-02  2.5201429155930412e-02  1.2101867234912482e-01  2.7688736969347108e-02  3.4003797433968100e-02  1.1821443921635340e-02  3.8338373207799661e-03  3.5603350900030840e-02  1.1198650224006043e-01  1.6400590778795892e-03  4.0826056542282982e-02  1.4514995923714602e-02  4.3453771215076376e-02  1.2237602641416510e-01  -7.2269335630338008e-04  -1.7359831228055848e-02  1.1100067931886717e-01  9.2747078727605251e-02  9.0259724644078290e-02  -1.3796827339070108e-02  -8.4561310057539134e-03  -3.6754699329942709e-04  -2.0556245307659021e-02  -7.0901271530866604e-03  -2.5651430750660571e-02  -1.9165284145764957e-02  -9.2542628748874863e-03  -6.8255409095424307e-03  1.5800825069235660e-02  2.9484005963798735e-04  -2.1299777767264733e-02  -2.2320284722667939e-03  -2.9381384150991795e-02  -1.3946270893017629e-02  -5.9155735767714834e-03  8.6985964246464979e-03  3.2516984948139517e-02  -2.6556610143251360e-02  8.7578885107617351e-03  -2.0923368751111407e-02  2.5997657896850847e-03  -9.6739388848655489e-03  1.0973046095308435e-02  -1.1174575548806015e-02  -9.6862849063078862e-03  -1.3112835761525190e-02  -1.3531421670968928e-02  -2.9689841489131764e-02  -1.7433716461979849e-02  -2.2994645166452582e-02  1.0292827556454661e-02  -5.1524888107163528e-03  -1.1405081330825398e-02  -2.6801211838553867e-02  -1.6190929476765266e-02  7.9726706625090540e-03  -1.3271843206629795e-02  -4.1194455439700481e-03  -9.5394417119260451e-03  1.0628707576455740e-01  -8.9901695333598416e-03  -1.9338692693558632e-02  -6.0303054481549729e-03  4.2427189504109557e-02  1.1351229219859840e-02  -1.2881378825937587e-03  1.1124540996602422e-01  1.2297782322730047e-01  1.2792448171893203e-01  -3.0446695442826223e-02  4.3972610181210563e-03  -3.2714063869724412e-02  6.0557301555577165e-03  -3.0782609531518363e-02  -2.0064021712719943e-02  1.2580150730140377e-01  4.6475462608808185e-03  4.8275447536616145e-03  -1.7855023061497097e-02  1.2274429510979380e-01  5.9821374593295581e-03  1.0298692303553384e-02  -6.7247444639826444e-03  -2.9523607452445170e-04  7.1702075302590342e-03  3.8787861626542589e-02  -3.2357918379795014e-02  8.8126133321893441e-03  1.1664250384387112e-01  3.8169444387432208e-02  -2.6778008643279463e-02  -1.7758064490288408e-02  3.1708476548238954e-02  -1.1693627215118073e-02  4.9504829200106189e-03  6.9315270351053296e-02  7.1333548764144052e-03  -1.4638318106329651e-02  -1.2541866137473487e-03  2.3127867936190336e-03  1.0849610770974036e-01  1.6866499851227332e-02  -2.5745100697540348e-02  -6.9099707660003652e-03  4.4940253415444414e-02  2.9579076882684727e-02  6.6440959708707503e-02  1.0097249388509580e-02  -6.0149065436320140e-03  1.8223930920342327e-03  4.1063830845866432e-03  1.9470476727384424e-02  -4.6297299439254126e-03  2.3920596906735012e-02  2.9562437622856392e-02  4.6815695579374199e-02  5.3064935125700728e-02  2.8727399231030071e-02  -3.1115755609798599e-02  -6.7417408254350202e-03  5.1071821677729492e-03  2.9390516913071769e-02  1.1340092144314312e-02  -5.9328255803445668e-03  4.5959299181304009e-02  2.8407718897301908e-02  5.0879133563384298e-02  3.9323550389696774e-02  1.0361192637790477e-02  2.9362255681402629e-02  -2.1977411754694861e-02  1.9785383948926257e-02  9.8548862219428726e-02  2.3695943166315157e-02  2.9069735737686047e-02  4.5183718136072519e-02  -1.7928216712441582e-02  4.5180535257936368e-02  1.2509928262717604e-01  4.0992652628660892e-02  5.4902754140561732e-03  5.5130849741500391e-02  5.1415483480715139e-02  3.7985039417755627e-02  -5.8121657319824003e-03  3.3649826055073224e-02  -1.1259512137925679e-03  3.4627656820133704e-02  -9.8933235798771127e-02  -9.7909579372922745e-02  -9.9200008512591573e-02  -9.8930818753904845e-02  -9.3225007695964479e-02  -9.4296232127427937e-02  -9.4967184489642933e-02  -9.6440016789615987e-02  -9.0099574321139991e-02  -8.1855478351740688e-02  -8.9230087632585511e-02  -8.9343366845004227e-02  -8.3137540144442162e-02  -9.7831515207523798e-02  -7.8656091844100579e-02  -4.9811843802001952e-02  -3.9410046804914951e-02  -3.9057949569777560e-02  -8.2782563810569684e-02  -4.5744416582621496e-02  -4.2643380162555526e-02  -8.9772353706563349e-02  -8.0658886372653837e-02  -7.4498011836420241e-02  -4.8935332365306901e-02  -7.0196630377544894e-02  -4.5168343443286151e-02  -7.6837619932372467e-02  -5.9325551318395793e-02  -8.8648362272500711e-02  -8.0488639292967262e-02  -7.5607622507895988e-02  -5.3470028187793298e-02  -5.9700761952604452e-02  -6.9268609219908989e-02  -5.7570596973335372e-02  -6.0960569049221883e-02  -2.8729164997544958e-02  -4.0226980962739717e-02  -3.5980875297922772e-02  -7.6566450789842116e-02  -5.8133337815484062e-02  -6.6948490546425918e-02  -7.0404673143036084e-02  -7.2913956696723126e-02  -2.2048466085687286e-02  -2.1782256239377490e-02  -7.1250547515287851e-02  -7.8540539668905993e-02  -5.5942456488258525e-02  -4.2760091722659002e-02  -4.0327766898317456e-02  -4.8753996128655018e-02  -3.9687436860267378e-02  -4.4430483738552927e-02  -4.8567912332236743e-02  -3.9938192102243870e-02  -3.5465294619418782e-02  -2.9464036367841822e-02  -2.7872229641810159e-02  -7.1117624049710629e-02  -7.5782524518960726e-02  -7.6798703085487488e-02  -7.9621220013609814e-02  -8.0365611196845904e-02  -7.9807482763527587e-02  -7.7281172012266350e-02  -7.9346205039361975e-02  -8.0044198257166660e-02  -8.2518130987485602e-02  -7.4660168576493172e-02  -9.5229286157871712e-02  -1.0726681787196772e-01  -1.0977156369176969e-01  -1.2043378236584065e-01  -1.2289916664645123e-01  -1.1776465399452363e-01  -1.3189291572771822e-01  -1.3315325443631926e-01  -1.3838839750922202e-01  -1.3934548258694321e-01  -1.3460290603643055e-01  -1.3716180177595699e-01  -1.3197130386001760e-01  -1.3670670356472905e-01  -1.3037637978837896e-01  -1.2453509849132605e-01  -1.1711199220613022e-01  -1.1741863505061019e-01  -1.1117204235255315e-01  -1.1556123125135002e-01  -1.0352678564020820e-01  -1.0554217622744905e-01  -9.5749127656640412e-02  -1.3568503938961785e-01  -1.3537107346562624e-01  -9.6045697293574678e-02  -8.9584576854900191e-02  -9.6491880675928884e-02  -1.3184677064503797e-01  -8.0753688177638949e-02  -1.2608166338634264e-01  -1.1051613210538463e-01  -7.5485763935070824e-02  -8.3074969060873208e-02  -7.2702407687259316e-02  -7.9739190910192506e-02  -7.2409561381959822e-02  -7.9401325712605858e-02  -7.4563254704328369e-02  -8.1667927421217701e-02  -7.7860421557193013e-02  -8.6282176673254496e-02  -8.3434693695991366e-02  -9.3865397502492509e-02  -9.0386846332251275e-02  -1.0226340917960419e-01  -9.7743163820491474e-02  -1.1180362038507315e-01  -1.0506160287206333e-01  -1.2046309194510950e-01  -1.1060961572874710e-01  -1.2625987167111838e-01  -1.2923947652698403e-01  -1.3523943014953074e-01  -1.2802132146489714e-01  -1.3525017590797392e-01  -1.3873894130360032e-01  -1.3697687463010369e-01  -1.3848518172050411e-01  -1.2330724689787238e-01  -1.3461334131916722e-01  -1.3581406373211069e-01  -1.2605814504923679e-01  -1.1008774586876489e-01  -1.0342436685407047e-01  -1.2868702288046946e-01  -1.3129895158772753e-01  -1.3185951334926110e-01  -1.2854039445723020e-01  -1.2434501499965057e-01  -1.2667267530253232e-01  -1.2299653373799764e-01  -1.2113873807999109e-01  -1.2118562302982185e-01  -1.1413743087152869e-01  -1.1412588221724465e-01  -1.1891021943084187e-01  -1.1713825315328578e-01  -1.1579642208924575e-01  -1.1860301592796695e-01  -1.1182302116232251e-01  -1.1754504948180239e-01  -1.1862516149894364e-01  -1.2202232057382706e-01  -1.1649796917605051e-01  -1.2434968160384224e-01  -1.2260135928332458e-01  -1.2887175938284734e-01  -1.2437655924116831e-01  -1.3201928662473836e-01  -1.3073375364541220e-01  -1.3631426119280590e-01  -1.3222951560329019e-01  -1.3813026222709782e-01  -1.3681677855773910e-01  -1.3945629215969127e-01  -1.3552532052795613e-01  -1.3612905399037339e-01  -1.3595862151594162e-01  -1.2737350114663026e-01  -1.3105977916367473e-01  -1.2868216736674709e-01  -1.2129441865458676e-01  -1.1839872794480014e-01  -1.2713342502443026e-01  -1.1414236457063735e-01  -1.2127450337083386e-01  -1.0882864248636276e-01  -1.0746162944221500e-01  -1.0780067857566392e-01  -1.0749140957408782e-01  -1.2178375708238345e-01  -1.1180417373635416e-01  -1.0106991079767530e-01  -9.6333943989558329e-02  -5.4103681664731701e-02  -9.7483104507115462e-02  -1.2737453792495598e-01  -1.1226866773165194e-01  -1.1453987255765546e-01  -1.0964553215906166e-01  -1.0414550794736606e-01  -1.1549603024114803e-01  -8.8281327653302544e-02  -9.2206189237236322e-02  -8.7070352417051175e-02  -9.1377682275076075e-02  -8.0769377623417876e-02  -1.0743448257825568e-01  -1.0489974020796455e-01  -1.1361619318607287e-01  -8.3763696276916266e-02  -6.7520282147306709e-02  -1.0159599555535280e-01  -1.0036954289448963e-01  -1.1325802402087697e-01  -1.3198567016615109e-01  -1.2722363342337034e-01  -1.2767127108764148e-01  -1.2163141911022737e-01  -1.2407901724644484e-01  -1.1816226501748463e-01  -1.1850693616871059e-01  -1.2052914830162074e-01  -1.1818103471677621e-01  -1.1615978448018587e-01  -1.1883777663576905e-01  -1.1335583467057397e-01  -1.1608044415291115e-01  -1.1785366569237876e-01  -1.2025808514480019e-01  -1.1233226287678265e-01  -1.1909238270241003e-01  -1.2139721826604624e-01  -1.2530709058738529e-01  -1.1844936908419886e-01  -1.2697034828932718e-01  -1.2758745235426702e-01  -1.3293841932373238e-01  -1.2740810331998162e-01  -1.3487425070306827e-01  -1.3527102609958652e-01  -1.3880211381381852e-01  -1.3372574458490674e-01  -1.3754340409233740e-01  -1.3818006513368772e-01  -1.3575429675356532e-01  -1.3341481926051021e-01  -1.2910802334217786e-01  -1.2997198130528698e-01  -1.2536678957057679e-01  -1.1835097038441769e-01  -1.1479063943126026e-01  -1.2345608396382834e-01  -1.1500974880054306e-01  -1.1588556367995270e-01  -1.1507436977246693e-01  -1.0871846036092939e-01  -1.0473925236802634e-01  -1.0336705356361342e-01  -1.0554608620014812e-01  -9.7969175211523457e-02  -9.4912082680577117e-02  -9.3612746562806104e-02  -8.8689719549003010e-02  -1.0515222551439177e-01  -1.0258632748220417e-01  -1.1313535706357701e-01  -9.9526907772009843e-02  -9.0105545113934787e-02  -8.8129359441186050e-02  -1.1855008654500432e-01  -9.0123292058888332e-02  -9.6967256822615353e-02  -8.3442535020382611e-02  -1.0259537702914487e-01  -9.8497925149886034e-02  -8.9706273035757830e-02  -1.0615666462491455e-01  -8.3352758795660495e-02  -7.8599648384945334e-02  -8.2108726128587620e-02  -7.9554989296373196e-02  -7.7379289525479983e-02  -1.0711141425298490e-01  -8.8671170286565806e-02  -9.8048962032120129e-02  -1.0364466287915643e-01  -1.0815448657074699e-01  -