<?xml version="1.0"?>
<VTKFile type="UnstructuredGrid"  version="0.1"  >
<UnstructuredGrid>
<Piece  NumberOfPoints="1277" NumberOfCells="2456">
<Points>
<DataArray  type="Float64"  NumberOfComponents="3"  format="ascii">0 0 0  0 1 0  1 1 0  1 0 0  1.1 -0.1 0  -0.1 -0.1 0  1.1 1.1 0  -0.1 1.1 0  0.5018394769272452 0.501313135397877 0  0.6171027753481827 0.7238677525530151 0  0 0.9499999999997918 0  0 0.8999999999995836 0  0 0.8499999999996529 0  0 0.7999999999999998 0  0 0.7500000000003466 0  0 0.7000000000006934 0  0 0.6500000000010401 0  0 0.6000000000013869 0  0 0.5500000000017335 0  0 0.5000000000020587 0  0 0.4500000000018723 0  0 0.4000000000016644 0  0 0.3500000000014564 0  0 0.3000000000012483 0  0 0.2500000000010403 0  0 0.2000000000008322 0  0 0.1500000000006241 0  0 0.100000000000416 0  0 0.05000000000020799 0  0.04999999999989965 0 0  0.09999999999981467 0 0  0.1499999999997036 0 0  0.1999999999995579 0 0  0.2499999999994121 0 0  0.2999999999992664 0 0  0.3499999999991206 0 0  0.3999999999989749 0 0  0.4499999999988292 0 0  0.4999999999986943 0 0  0.5499999999988151 0 0  0.5999999999989468 0 0  0.6499999999990784 0 0  0.69999999999921 0 0  0.7499999999993417 0 0  0.7999999999994734 0 0  0.8499999999996051 0 0  0.8999999999997368 0 0  0.9499999999998684 0 0  1 0.04999999999989965 0  1 0.09999999999981467 0  1 0.1499999999997036 0  1 0.1999999999995579 0  1 0.2499999999994121 0  1 0.2999999999992664 0  1 0.3499999999991206 0  1 0.3999999999989749 0  1 0.4499999999988292 0  1 0.4999999999986943 0  1 0.5499999999988151 0  1 0.5999999999989468 0  1 0.6499999999990784 0  1 0.69999999999921 0  1 0.7499999999993417 0  1 0.7999999999994734 0  1 0.8499999999996051 0  1 0.8999999999997368 0  1 0.9499999999998684 0  0.9499999999997918 1 0  0.8999999999995836 1 0  0.8499999999996529 1 0  0.7999999999999998 1 0  0.7500000000003466 1 0  0.7000000000006934 1 0  0.6500000000010401 1 0  0.6000000000013869 1 0  0.5500000000017335 1 0  0.5000000000020587 1 0  0.4500000000018723 1 0  0.4000000000016644 1 0  0.3500000000014564 1 0  0.3000000000012483 1 0  0.2500000000010403 1 0  0.2000000000008322 1 0  0.1500000000006241 1 0  0.100000000000416 1 0  0.05000000000020799 1 0  -0.1 1.05000000000004 0  -0.1 1.000000000000079 0  -0.1 0.9500000000001624 0  -0.1 0.9000000000003032 0  -0.1 0.850000000000444 0  -0.1 0.8000000000005848 0  -0.1 0.7500000000007256 0  -0.1 0.7000000000008665 0  -0.1 0.6500000000010508 0  -0.1 0.6000000000012352 0  -0.1 0.5500000000014196 0  -0.1 0.500000000001539 0  -0.1 0.4500000000014195 0  -0.1 0.4000000000013 0  -0.1 0.3500000000011588 0  -0.1 0.3000000000010178 0  -0.1 0.2500000000008986 0  -0.1 0.2000000000007579 0  -0.1 0.1500000000006174 0  -0.1 0.1000000000005272 0  -0.1 0.05000000000040083 0  -0.1 2.671196597248127e-13 0  -0.1 -0.0499999999998666 0  -0.0500000000000906 -0.1 0  -1.730560139634463e-13 -0.1 0  0.04999999999975802 -0.1 0  0.09999999999961506 -0.1 0  0.1499999999994613 -0.1 0  0.199999999999302 -0.1 0  0.2499999999991446 -0.1 0  0.2999999999990088 -0.1 0  0.3499999999988296 -0.1 0  0.3999999999986936 -0.1 0  0.4499999999985143 -0.1 0  0.4999999999984002 -0.1 0  0.5499999999985247 -0.1 0  0.5999999999986493 -0.1 0  0.6499999999987955 -0.1 0  0.6999999999989417 -0.1 0  0.7499999999990659 -0.1 0  0.7999999999992116 -0.1 0  0.8499999999993573 -0.1 0  0.8999999999994526 -0.1 0  0.949999999999584 -0.1 0  0.9999999999997226 -0.1 0  1.049999999999861 -0.1 0  1.1 -0.0500000000000906 0  1.1 -1.730560139634463e-13 0  1.1 0.04999999999975802 0  1.1 0.09999999999961506 0  1.1 0.1499999999994613 0  1.1 0.199999999999302 0  1.1 0.2499999999991446 0  1.1 0.2999999999990088 0  1.1 0.3499999999988296 0  1.1 0.3999999999986936 0  1.1 0.4499999999985143 0  1.1 0.4999999999984002 0  1.1 0.5499999999985247 0  1.1 0.5999999999986493 0  1.1 0.6499999999987955 0  1.1 0.6999999999989417 0  1.1 0.7499999999990659 0  1.1 0.7999999999992116 0  1.1 0.8499999999993573 0  1.1 0.8999999999994526 0  1.1 0.949999999999584 0  1.1 0.9999999999997226 0  1.1 1.049999999999861 0  1.05000000000004 1.1 0  1.000000000000079 1.1 0  0.9500000000001624 1.1 0  0.9000000000003032 1.1 0  0.850000000000444 1.1 0  0.8000000000005848 1.1 0  0.7500000000007256 1.1 0  0.7000000000008665 1.1 0  0.6500000000010508 1.1 0  0.6000000000012352 1.1 0  0.5500000000014196 1.1 0  0.500000000001539 1.1 0  0.4500000000014195 1.1 0  0.4000000000013 1.1 0  0.3500000000011588 1.1 0  0.3000000000010178 1.1 0  0.2500000000008986 1.1 0  0.2000000000007579 1.1 0  0.1500000000006174 1.1 0  0.1000000000005272 1.1 0  0.05000000000040083 1.1 0  2.671196597248127e-13 1.1 0  -0.0499999999998666 1.1 0  0.6413839039400432 0.7182547243958499 0  0.6647430687970799 0.7096024212570717 0  0.6866339268588618 0.6976692290300264 0  0.7066074310137264 0.6827342092591291 0  0.7243990911792005 0.6652585772021397 0  0.7379853506463381 0.6444026301186265 0  0.7470503612453755 0.6211747155171515 0  0.7544019129608086 0.5973546956130401 0  0.7595284631121523 0.5729652459911608 0  0.7624630749183607 0.5482262541189166 0  0.7635934286829732 0.5233414261619148 0  0.7631170304960656 0.4984424505151732 0  0.7609181080775661 0.4736408047084435 0  0.757051373479247 0.4490474061646977 0  0.7516481465189505 0.4247489820002573 0  0.7445114385098054 0.4009054890934589 0  0.7356347581184834 0.3776543399404093 0  0.7251284701799408 0.3550904604776191 0  0.7127973318310402 0.333473889902489 0  0.6986167897816022 0.3130166580574873 0  0.6823489842895325 0.2941645743868783 0  0.6641785988286942 0.2771389448092683 0  0.6438087687574855 0.2627962789014588 0  0.6216204267265878 0.251501114084059 0  0.5975303585547476 0.2452939762262147 0  0.5727611780179904 0.2427315620074776 0  0.5478834885837193 0.2431210430323209 0  0.5231723954064141 0.2459479495738941 0  0.4988321207863353 0.2510231920831494 0  0.474816408272579 0.2574191359625085 0  0.4511483811187848 0.2649809126247762 0  0.4278590072350149 0.2736176175594449 0  0.4050482204709432 0.2834289731948516 0  0.3827742060051865 0.294373633769088 0  0.3610882484980174 0.3064301812088852 0  0.3400310925667966 0.3195408206161502 0  0.3196016022151233 0.3336067556163939 0  0.2999236754131569 0.3487032925171391 0  0.2810410410930859 0.3647858582303184 0  0.2628270842782029 0.3816244820866088 0  0.2454332751855381 0.3993160202887657 0  0.2289224687497204 0.4178468249734252 0  0.2133407602003356 0.4371792127503438 0  0.1987390713730053 0.4572827955605708 0  0.1865065654617314 0.4788980142518253 0  0.177354833970175 0.5020055262103023 0  0.1757489085024197 0.5267472241989366 0  0.1804722580015173 0.551196264631981 0  0.1912082398360847 0.5735577352900468 0  0.2070632743985379 0.5927564475049928 0  0.2245115834530343 0.6104842989269145 0  0.2432880249667088 0.6267999176164886 0  0.2629512415164427 0.6420134440324913 0  0.2833052460163182 0.6562796497273343 0  0.3044532410812302 0.6693380527961125 0  0.3263724980322602 0.6810537225613148 0  0.3490390496344552 0.6912465487031075 0  0.372175745229104 0.7003245403632483 0  0.3957349876298232 0.708250274515398 0  0.4197273909315577 0.7147597788741894 0  0.4440098430152875 0.7201079503947578 0  0.4685082060903209 0.7243890695180196 0  0.4931588731384532 0.7277209426319952 0  0.517952670106517 0.7298074864999066 0  0.5428259696036302 0.7305994985249004 0  0.5677142860871588 0.7300896688929003 0  0.5925200341310226 0.7278760516688402 0  0.2662304467395765 0.6172868525910306 0  0.2537996148557713 0.4228653370470232 0  0.7223856222167703 0.6256316993656235 0  0.7422571967136311 0.534026316144668 0  0.6224512851959126 0.7021820980325284 0  0.6036178849877657 0.2691547509613694 0  0.689508579026108 0.3354440982261963 0  0.515125322046268 0.2682905722711484 0  0.3060062637273062 0.3726938367641747 0  0.3607490832978572 0.3296561812770965 0  0.4489984498467759 0.2930437126873333 0  0.3256932179510355 0.6570541469454844 0  0.389969474170188 0.684747499155408 0  0.4599172390363938 0.7009575513152453 0  0.5310258689566997 0.7100658197174982 0  0.7272882687646773 0.4180818151158331 0  0.2050868706456578 0.5530714339150526 0  0.2112789064872196 0.4788105934739316 0  0.6839949716394074 0.6737770602875333 0  0.4025855875686359 0.3079234711727432 0  0.7371121310351519 0.4652885446334483 0  0.5779612874279992 0.7090424222672196 0  0.7358541295017934 0.5785348091362861 0  0.7108404871693973 0.3750236383880798 0  0.6600059103618237 0.3001921375665943 0  0.5630764518150859 0.2614365533233829 0  0.2313762202775344 0.5881681989694989 0  0.1957290313021442 0.5138520993955632 0  0.4842460369989732 0.7051761808816115 0  0.4769587200367763 0.6816042813612333 0  0.4516162984781938 0.6772883189970177 0  0.4692390504767608 0.6575967374221884 0  0.4413964036094363 0.6530254966372881 0  0.4562606382610903 0.6358148323344702 0  0.4801332560729973 0.6321320976209659 0  0.4316346121555243 0.627731849311982 0  0.4520531990500157 0.6030987879397088 0  0.4126988612471509 0.5991103905956807 0  0.4971882626751346 0.5978083309950022 0  0.5346818317545677 0.6283127435166485 0  0.5402009233280975 0.580532784582765 0  0.5724568749276906 0.6161880415131965 0  0.5820061486693774 0.5681688170049707 0  0.6129241446433326 0.6034701049443078 0  0.623252425687806 0.5548164807896928 0  0.6556708005311056 0.5852489195128151 0  0.6659476362937573 0.5473857865506138 0  0.6342827821743685 0.5180424984999882 0  0.6707102777569675 0.5156098389223647 0  0.6506869985180976 0.4832644220198014 0  0.6082417100827827 0.4907025122361295 0  0.6201367844027043 0.4529833979586823 0  0.6613671371201493 0.4413821933889208 0  0.6359045716686722 0.4113618670404519 0  0.5938983066060997 0.4217043131960819 0  0.6071054046084946 0.3846377979065338 0  0.5682793460453145 0.3913122732320565 0  0.5850354033454062 0.3520911740098728 0  0.5421261587480862 0.3551066753143933 0  0.5291557260761883 0.3965861012133015 0  0.5016437294070983 0.3599274264072101 0  0.4877171228898206 0.403927035858507 0  0.4595140355018026 0.3678545979957155 0  0.4452806489892082 0.4105218635849585 0  0.64320
[...]
<PointData  Scalars="v"> 
<DataArray  type="Float64"  Name="v"  format="ascii">5.8520900335715653e-20  1.2542064548351786e-19  5.9966928691411593e-20  3.2040517208877368e-21  -1.0492826209389462e-21  -3.4673161993837126e-21  -3.2380689849812772e-22  -7.4688362228725689e-21  2.0414813444050569e-03  1.5399067612482790e-03  -7.8402070048290100e-20  6.2115901721756603e-19  7.3910743805227669e-19  -3.9005021310836242e-19  1.8352392747824561e-18  1.5382079360251632e-18  -8.7855083013320167e-19  4.8823410234470485e-19  -1.4965775041682315e-19  8.2109284441114949e-20  1.5120138959725173e-18  5.5421172765710707e-19  -5.3979291129849260e-19  9.1199853660209117e-19  -1.3692757665422373e-18  2.6309427837069744e-19  6.2439393906053799e-19  6.6829796578004618e-19  -2.6953850728633631e-19  3.9436479980620251e-19  3.7454104659881060e-19  2.5240918605930680e-19  -1.9495068717291094e-19  6.0978242204038385e-19  -1.5665729016197943e-19  -2.3666496697507511e-18  -2.2607703600290470e-18  1.0695483908641933e-18  1.2478022836495690e-18  1.1215485467178473e-18  -6.7153748625872723e-20  7.2750855071622377e-19  9.0285861070214878e-19  5.5832503710152070e-19  6.8880250431556872e-19  1.6780257685389447e-19  3.6692219939071367e-19  -1.6785086298218713e-19  1.8580104964416273e-20  -1.6109371290137556e-19  4.6548225660853119e-19  3.4221868695402997e-18  -4.3294364123564797e-18  -4.4491173314626052e-20  1.1343667618651159e-18  3.6232381261554734e-19  -7.0568204139259176e-18  5.4196185972012761e-19  8.7044480624838397e-18  1.0655452833359296e-18  -2.1059737837546682e-18  -6.6284013286734111e-19  6.4725352894166311e-19  -3.4285028217457674e-18  -1.3162350495253692e-19  -1.1075369171247580e-19  8.9299481969138015e-19  -1.3454528361290855e-20  1.7465413978388312e-18  2.8357686951115248e-19  -3.1478086553548917e-18  1.9915877651716847e-19  4.2920558796791141e-19  1.8280267677060596e-20  6.5258055135620389e-18  -5.4468960248491612e-18  -6.3680975326213672e-18  5.0159035572050931e-18  -6.5216078148674101e-19  -5.6257472376606097e-18  -5.2047922971264578e-18  3.1400018964518797e-18  -2.4805773870935802e-19  2.4521721007430264e-19  -8.0671092382169566e-19  -6.6914766441803121e-19  6.4997415646230583e-21  3.2581443173640770e-21  8.3752501012261281e-21  8.5372837346235773e-20  5.9317981763137300e-20  2.4964209863751053e-20  1.9880570226463328e-19  7.3881959158714070e-20  -2.3437457817331471e-20  -1.0043122317861566e-20  3.5633450881545722e-20  4.9799834881342377e-20  1.9426519242857989e-19  4.2257291414985918e-20  6.7160965359714107e-20  8.5378884559612898e-20  -1.3753448813253969e-19  -4.7854338229430525e-20  1.1094146570885125e-19  7.7184413290182845e-20  -1.6758085964388619e-21  -1.3431408185897194e-20  9.1718595849165198e-21  -2.0016794901050087e-21  8.4966412139174886e-21  4.6504993223278362e-20  5.9521522780232220e-20  2.1556247213601037e-20  -1.4467897976479168e-20  6.6071806983840136e-20  -8.5339392220387989e-20  -3.4570679207968254e-19  -2.8070841050974375e-19  9.6334267193870849e-20  2.1144506871780073e-19  8.3147687107501160e-20  4.1050163406820497e-20  8.9433993103645554e-20  7.7045303805603449e-20  8.1947805586560053e-20  8.2603878728680306e-20  4.7491881695065548e-20  2.7320813014700302e-20  -1.4863069311004006e-21  -1.1175469092855823e-20  4.2851178016374174e-21  -1.1161020441548241e-21  3.3090890283499292e-21  -3.9912589089676565e-21  1.4147042181488368e-20  7.7416491154028136e-20  5.8829589871449081e-20  -6.1964337158978329e-20  -1.7258282961362522e-20  5.6170107119569951e-20  6.5682687540045095e-20  2.3032347229398190e-20  -3.3004083387838845e-20  2.0198156246425901e-20  8.9683255582718404e-20  -8.7304920098196546e-20  -1.2047374629528719e-20  8.9108209813459284e-20  6.1619792414851689e-20  -1.4360188375757464e-20  -1.9199784905725929e-20  -3.2921812697701516e-21  2.8500176030208156e-22  7.5467709969847756e-23  1.0666963186020378e-21  -3.7753631510012837e-21  4.2490449873160986e-21  3.1334348896774137e-20  4.2253380630456844e-20  2.6580649373422740e-20  3.2914261554953821e-20  4.8110719254682665e-20  2.6076286169578480e-20  8.5303220192049633e-21  1.8599900162781970e-20  -1.3403141497717614e-20  -5.3312632406227776e-20  3.8311669131488825e-20  2.3006588441435881e-20  -5.9692766157414583e-20  -3.4996922464860268e-20  1.2027083684552395e-20  4.1335033855899663e-20  3.5592691348168546e-20  2.3776704206933523e-21  5.4613173197993752e-21  6.1556102729375526e-21  1.5428053894348329e-03  1.5523914973438013e-03  1.5684264292279704e-03  1.5872842035205724e-03  1.6089197868595297e-03  1.6359943794908589e-03  1.6668278437733627e-03  1.6908099821519140e-03  1.7106572734801363e-03  1.7248452742528832e-03  1.7325830349559548e-03  1.7326588368916200e-03  1.7241964444063129e-03  1.7076390173054678e-03  1.6815119551188940e-03  1.6458692058178665e-03  1.6006971741913598e-03  1.5465136327600156e-03  1.4845517493984402e-03  1.4139339523206109e-03  1.3366104648517201e-03  1.2676382918550759e-03  1.2104333385802128e-03  1.1679961800019484e-03  1.1454411281646842e-03  1.1405174957868349e-03  1.1498290952809678e-03  1.1717834569204631e-03  1.2036491362486827e-03  1.2429946518066346e-03  1.2880838753842371e-03  1.3334067391115121e-03  1.3809136100955120e-03  1.4317311683287950e-03  1.4640404414733874e-03  1.4893045624013094e-03  1.4977942007996545e-03  1.4923712120282601e-03  1.4713921532811306e-03  1.4346314107801207e-03  1.3833967055142974e-03  1.3209933471098620e-03  1.2423459314854512e-03  1.1608757062921413e-03  1.0905427815807688e-03  1.0336379593151503e-03  1.0134872444829059e-03  1.0320864097174572e-03  1.0847128469892117e-03  1.1559422553476229e-03  1.2346352551449312e-03  1.3119626318809010e-03  1.3796598059618451e-03  1.4346403794375398e-03  1.4795996559084645e-03  1.5141380685673592e-03  1.5400785598598142e-03  1.5536209053608721e-03  1.5592730227174283e-03  1.5609669461607121e-03  1.5582681416300927e-03  1.5534485414264209e-03  1.5486768173797027e-03  1.5444840054181504e-03  1.5403733049287791e-03  1.5372708278546835e-03  1.5361902717040896e-03  1.4462371559817828e-03  1.4548050018315104e-03  1.7582806320475784e-03  1.8377432406214997e-03  1.6602688601921626e-03  1.2599599928639028e-03  1.5448300069544603e-03  1.2835355901114243e-03  1.5742478829838754e-03  1.5619983757356559e-03  1.4385338309325043e-03  1.5888722293006929e-03  1.6571037411655430e-03  1.6794204252380234e-03  1.6597990059125374e-03  1.7619214761211261e-03  1.1855020875124174e-03  1.2514827750248554e-03  1.6978235976085065e-03  1.5105077373788901e-03  1.8247209098390558e-03  1.6551783736701031e-03  1.8154535168783462e-03  1.6668502150886100e-03  1.4030647828322273e-03  1.2329102749905768e-03  1.3177639051645499e-03  1.1494310383763119e-03  1.6745238746716112e-03  1.7550163924911493e-03  1.7518316007458761e-03  1.8244515689087102e-03  1.8132741305997937e-03  1.8738469121062696e-03  1.9029963494694923e-03  1.8657263403918751e-03  1.9372962903489541e-03  1.8905742523658718e-03  1.9859448816977520e-03  1.9380515727799481e-03  2.0330223048095316e-03  1.9695121240518448e-03  2.0519318677096931e-03  1.9851570896909348e-03  2.0485155663191087e-03  1.9812821983785536e-03  2.0109857590407932e-03  2.0516383089547023e-03  2.0120399329296317e-03  2.0156434357736534e-03  2.0493681601160244e-03  1.9890485541657599e-03  1.9344517588502756e-03  1.8753498564885707e-03  1.9198021940510799e-03  1.7970614428867995e-03  1.8260752804815626e-03  1.6663597939433473e-03  1.6849351931761682e-03  1.8416985135802214e-03  1.7080678000077495e-03  1.8549715909274929e-03  1.7349060978911787e-03  1.8532310170705868e-03  1.9185247184281301e-03  1.7492414058441653e-03  1.8176318653511069e-03  1.5520441982175069e-03  1.8255354807688107e-03  1.8125034152396452e-03  1.8998076857331117e-03  1.8153284416461046e-03  1.8778507477464736e-03  1.7828521126898862e-03  1.7153938029483124e-03  1.6736671570741607e-03  1.7320440422283034e-03  1.6151794450627458e-03  1.6689824390832438e-03  1.5459110405864904e-03  1.9193296807229145e-03  1.7634578017528286e-03  1.6964314931458939e-03  1.9540354983164691e-03  1.6596526240068132e-03  1.4883572137256347e-03  1.4189343550303438e-03  1.4665024457707586e-03  1.7333047475268600e-03  1.8427759149451431e-03  1.8918548735527866e-03  1.6039024623593378e-03  1.7444164743034079e-03  1.7781313523900322e-03  1.9499479995078216e-03  1.6253094637218436e-03  1.6680877743714311e-03  1.6932484533976710e-03  1.6622025262497215e-03  1.7414809210345684e-03  1.7352299013442005e-03  1.7241063046949856e-03  1.8974268181474240e-03  1.8144973313151680e-03  1.6094286047760272e-03  1.6333336021666482e-03  1.8858760398617145e-03  1.8033509007605230e-03  2.0001172618047984e-03  1.7482360629443824e-03  1.7350183494245920e-03  1.6250831596569600e-03  1.5368845012467215e-03  1.5179667786970649e-03  1.4382727781446119e-03  1.4615913627593266e-03  1.5790133092658375e-03  1.5017830148233437e-03  1.8990215436644159e-03  1.8765176300811039e-03  1.8395308279751112e-03  1.8321509509381347e-03  1.5429898876216464e-03  1.7949629087405765e-03  1.7314042117123828e-03  1.6496228684002728e-03  1.6335646390284368e-03  1.5575368709547944e-03  1.3405387405614629e-03  1.9499975216504927e-03  1.9382870731881252e-03  1.8868784414124609e-03  1.3629050906505910e-03  1.4163083001375208e-03  1.8515985958290054e-03  1.7876327935112872e-03  1.9572689485068098e-03  1.5476044811172992e-03  1.9648482022861968e-03  1.9078652568260603e-03  1.4021054332180570e-03  1.7958822449369977e-03  1.9153779098134748e-03  1.4592372485031184e-03  1.5917685683480688e-03  1.4890713719566925e-03  1.7101460041892850e-03  2.0707137786213025e-03  1.5502058151162293e-03  1.5551470984229866e-03  2.0130454040270199e-03  1.8301902193805825e-03  1.8343880436177691e-03  1.3366349791520706e-03  1.6763921234497243e-03  1.3829033526125945e-03  1.5897998314366106e-03  1.3665942743524111e-03  1.4995342236769074e-03  1.6472991844637102e-03  1.7666450667511719e-03  1.7542356883201023e-03  1.8124371387143647e-03  1.7459735417392124e-03  1.5413215352753204e-03  1.2715428279787755e-03  1.5698716582975062e-03  1.4691086831441847e-03  1.3192056072616333e-03  1.5635065621956922e-03  1.6484850787385551e-03  1.5467977354132025e-03  1.6417591414732290e-03  1.6265102938735263e-03  1.6711662817575795e-03  1.8377089149236433e-03  1.9081067128223403e-03  1.6536014596374281e-03  1.8317354486946894e-03  1.6691317047463801e-03  1.7921075269362857e-03  1.6853461639062884e-03  1.7211672667658577e-03  1.3843797181467797e-03  1.8925979382469163e-03  1.6630824341076775e-03  1.8332386864474226e-03  1.6065033323324918e-03  1.8029262294658938e-03  1.4752041501449318e-03  1.3561656927341948e-03  1.3080897515909120e-03  1.5189407234801997e-03  2.0702329357019664e-03  1.2545740262480262e-03  1.6578093825923811e-03  1.6429336571684356e-03  1.8276877169618472e-03  1.4006810954654350e-03  1.4777253163335837e-03  1.9460381735953169e-03  1.9539710653519934e-03  1.9923579861870731e-03  1.4818689966070301e-03  1.7104270183482767e-03  1.7051216424878535e-03  1.7336983142623419e-03  1.3199000219331252e-03  1.3785216396695868e-03  2.0333043864214709e-03  1.8368348604487876e-03  1.3399704990059353e-03  1.2575648876777606e-03  2.0471696007809130e-03  1.5943753925223905e-03  1.3724797808664763e-03  1.2519056871268933e-03  1.6354964776567943e-03  1.8918997491654528e-03  1.8951636680113284e-03  1.7170154379740005e-03  1.7277256399606984e-03  2.0578752779492580e-03  1.7940259483198578e-03  1.6733736527796855e-03  1.1364297430956349e-03  1.9587741673681926e-03  1.4444229597522669e-03  1.5222630744980083e-03  1.9093648800554285e-03  1.8968538650274190e-03  1.7652231429686287e-03  1.6342606815767551e-03  1.8732965152472168e-03  1.9605911879691557e-03  1.6902158915399325e-03  1.4871310705967167e-03  1.5869868775253650e-03  1.5527827372925926e-03  1.4817189753904621e-03  1.7634301128382766e-03  1.4260447122076501e-03  1.4118133240442650e-03  1.6133355972379124e-03  1.7423752070008388e-03  1.4953327841606481e-03  1.5810669470724306e-03  1.6742679599946614e-03  1.9342811748841635e-03  1.9767429205138839e-03  1.6914108115884292e-03  1.9308481706633790e-03  1.2612729856449239e-03  1.6852530334402164e-03  1.7545681887680142e-03  1.8161854364167123e-03  1.7328365232304706e-03  1.8267262944839451e-03  1.6285049200233334e-03  1.5701763654039698e-03  1.5984778342901806e-03  1.7712130024151135e-03  1.5316877508533466e-03  1.7695743330546144e-03  1.2092387002960476e-03  1.5528910519259781e-03  1.8678703854617502e-03  1.6335432283248275e-03  1.7904058114992388e-03  1.8769318470033790e-03  1.1501408941785700e-03  1.8542571595177742e-03  2.0101645054394707e-03  1.7205131434664591e-03  1.7202264911888598e-03  1.8338069158440721e-03  1.7284013122724773e-03  1.7173573546406394e-03  1.7401486219121509e-03  1.8697033367762877e-03  1.6230501770239543e-03  1.9628070522319865e-03  1.4310591264488572e-03  1.3935322412473433e-03  1.3134961021295929e-03  1.5057308446751357e-03  1.5436701292326762e-03  1.3783772062970891e-03  1.4732590489661881e-03  1.4741939714843970e-03  1.3447601262820709e-03  1.4928456886752429e-03  1.4977084309915861e-03  1.2070321706407392e-03  1.2568006189192333e-03  1.1779716461150465e-03  1.4695646915368046e-03  1.6975200359008408e-04  1.4643160424705336e-04  1.6348874621859152e-04  1.5967513129704091e-03  1.8421892093000119e-04  1.9757305185107564e-04  1.0931535219494467e-03  1.0849776285490466e-03  1.6120312005054908e-03  1.9367056566105389e-04  1.6493674392274074e-03  2.4440972475051759e-04  1.1301441510964789e-03  1.7089677861692766e-04  1.4694078904974334e-03  1.0714810026326669e-03  1.1273532309191018e-03  2.6821114958563411e-04  2.5703676030214420e-04  1.6482490102007169e-03  2.3811705987453763e-04  2.8410523714094809e-04  2.8120618481816814e-04  2.3931021351009877e-04  3.1542624265531760e-04  1.4846126585218223e-03  2.8650082584009653e-04  1.9858350306167522e-04  9.9255183833273000e-04  2.6135661381955293e-04  3.3713133491476189e-04  3.2044855762383418e-04  9.5220907864313452e-04  2.5115836284467078e-04  2.6910583259884052e-04  1.2028587967925094e-04  1.2714572160591207e-04  2.8561508819182057e-04  1.3059608450374970e-04  1.1086523148043869e-04  2.3737197242608231e-04  1.1266319445307399e-04  1.1266078105469458e-04  7.3370337689754696e-05  5.9799360180132831e-05  9.3515742963973898e-04  8.8681115838180565e-04  8.3179931529642193e-04  7.5393896037953317e-04  8.2353511717410573e-04  6.9055349892755541e-04  5.8169707031873982e-04  7.7750949029813576e-04  6.2439973743947383e-04  7.1490395029388787e-04  9.7061412059851789e-04  1.1203968149471450e-03  1.0919008120138277e-03  1.1376109764829213e-03  1.0271671856386419e-03  1.0604180619301861e-03  9.9083733246961439e-04  9.3258589740321434e-04  9.7953967106890940e-04  8.1785316598449417e-04  8.3306191155019954e-04  9.7889098924340816e-04  8.2720378636633608e-04  9.6746172447400832e-04  6.9249570097184112e-04  7.9307974394887204e-04  9.2105674361771836e-04  7.3081593067055614e-04  5.8796387983671059e-04  8.3532362146764830e-04  1.0461870161068063e-03  9.3896609276493631e-04  1.1890772210821124e-03  1.0380106266149201e-03  7.8990516429632875e-04  6.6103340180397605e-04  1.2592302752071391e-03  1.1478575783216438e-03  6.3704183546770075e-04  6.3766905332643094e-04  8.6342468331849988e-04  1.1089764517600834e-03  1.2433199168956617e-03  9.2299834254752351e-04  1.1841455799943132e-03  9.7077844402878135e-04  1.2312639615355170e-03  1.0059131747317219e-03  1.2925215681232041e-03  1.0257631375109378e-03  1.3007154971141346e-03  1.0155834960516234e-03  1.2481825588723460e-03  9.9847064443431928e-04  1.2354185546186978e-03  9.6387448237538766e-04  1.1473242048755266e-03  9.0463119443401103e-04  1.0653136736751433e-03  8.3501515278471981e-04  9.7105812000816867e-04  7.4697851730469585e-04  8.6607158944171391e-04  1.0751781579767434e-03  9.4812078975091603e-04  7.4998629138994691e-04  8.0772226697197488e-04  9.9530976923867340e-04  8.3219128641219596e-04  1.0091295610641215e-03  6.1783956771491373e-04  8.2623387860412370e-04  9.9487667398610088e-04  6.6066858523559772e-04  5.3726198882328164e-04  4.3499476488374994e-04  7.7990060059555737e-04  9.6738714428530452e-04  1.1985827309290659e-03  1.1536486081804602e-03  1.1427447793823649e-03  9.2469616630501102e-04  1.0675669135592339e-03  8.4526927639472791e-04  9.9340098876224327e-04  1.1953715111866184e-03  1.1602353527975246e-03  9.2429474685241323e-04  1.0669137514757315e-03  8.4127507345967503e-04  9.8103400071595658e-04  1.1872621150169737e-03  1.1211820476632803e-03  8.9802062924193733e-04  1.0122799085983132e-03  8.0150341580991424e-04  9.2659403412834532e-04  1.1374701671980714e-03  1.0325945313129222e-03  8.3044434299033574e-04  9.2315928444628348e-04  1.1136598113573053e-03  9.9863376022903735e-04  8.1120976406106281e-04  8.7365984521675319e-04  1.0524915380485239e-03  9.1306145161726166e-04  7.3927685138374614e-04  7.6000329756368797e-04  9.1675328629017470e-04  5.9819620230220781e-04  7.4841990171620740e-04  8.8635628914474334e-04  7.1028127384930087e-04  8.2894763494388069e-04  1.0579794110100232e-03  5.5223951915603863e-04  5.6197594589983907e-04  4.3157156120624527e-04  1.2744591169945251e-03  6.3512385334601757e-04  7.7230588796939651e-04  4.9452417050145300e-04  9.2311378788687340e-04  8.2513571679389698e-04  6.7210003482912853e-04  7.0613351449229454e-04  1.0186571047012352e-03  5.3554671633444925e-04  4.5303865267444781e-04  6.8228876722515187e-04  4.7236604293235672e-04  1.2949948738578551e-03  1.2940716323924725e-03  6.0289392136429634e-04  7.1622468406021549e-04  1.4369867474894192e-03  3.1093765628761183e-04  1.4273136978249282e-03  6.8374660539802484e-04  6.6170022053907266e-04  1.1660947359278010e-03  2.9979863979538620e-04  6.9045118686512734e-04  1.3152327134162212e-03  1.3490083040334543e-03  1.2480136126868031e-03  7.5798067870351429e-04  5.9574898626929399e-04  7.4959274935014291e-04  5.4778795708137942e-04  6.7496529447855593e-04  8.4577117702710363e-04  7.9551785537368110e-04  6.1880734957914805e-04  7.8023939811444176e-04  5.6956615645961130e-04  7.0551200932495708e-04  8.5574448263541034e-04  8.5748317302545760e-04  6.5568302460555393e-04  7.9457001865667601e-04  9.6116992077305611e-04  9.3961911458548687e-04  7.4940692626351846e-04  8.7444840387272650e-04  1.0450295192565074e-03  9.9421564450627204e-04  8.1218340652416585e-04  9.5627309573088860e-04  7.4635986997272411e-04  8.4946936166539310e-04  9.9687405618899684e-04  9.5492599840163754e-04  7.5955829689527640e-04  8.1486603425330031e-04  9.8421449080262724e-04  8.4030335381657471e-04  1.0015832235511627e-03  8.3903131210414598e-04  6.7663842725141938e-04  9.8274238973588180e-04  8.0149062635074815e-04  9.3201107351585199e-04  1.1473128490716150e-03  6.5598199631587749e-04  1.1476552254061389e-03  6.1938866038706980e-04  5.4750926893517096e-04  7.2329720854503847e-04  8.5292452089337316e-04  1.0563250308200528e-03  9.7366619580534588e-04  1.1196564221726793e-03  7.8458800029508277e-04  8.5828829241511352e-04  1.1773021702753783e-03  1.2581846167760535e-03  1.2296020406375604e-03  1.1804747655637139e-03  9.3157943324861144e-04  4.1523749691101006e-04  1.3022151044505981e-03  1.0534789505738805e-03  1.3419302604634985e-03  5.3202100088936132e-04  1.0396461398086327e-03  1.0249238560847034e-03  1.2137787197542219e-03  1.2522118051958827e-03  6.6524433669551571e-04  1.4368380184086134e-03  1.4457790261632043e-03  1.5571280570643915e-03  5.3840633718776443e-04  9.3053524731866199e-04  1.4197417015741147e-03  1.5159637244642333e-03  1.4619880635130258e-03  1.4348026708559385e-03  1.4758284914123609e-03  1.3772312808942142e-03  1.4413102391926294e-03  3.5004214336477779e-04  4.7854579139131384e-04  1.0967046110831895e-03  1.1068901898456933e-03  3.4245135481053720e-04  3.7411790573953208e-04  5.0371962671044918e-04  5.2212143844839159e-04  1.3982319550988249e-03  1.4877523826849891e-03  1.4299888883550934e-03  2.9587034643850939e-04  1.4130221345812445e-03  1.4038877986693702e-03  1.2653278970246313e-03  1.1170780888433780e-03  1.2660766471345806e-03  1.2958498