<?xml version="1.0"?>
<VTKFile type="UnstructuredGrid"  version="0.1"  >
<UnstructuredGrid>
<Piece  NumberOfPoints="1277" NumberOfCells="2456">
<Points>
<DataArray  type="Float64"  NumberOfComponents="3"  format="ascii">0 0 0  0 1 0  1 1 0  1 0 0  1.1 -0.1 0  -0.1 -0.1 0  1.1 1.1 0  -0.1 1.1 0  0.5082136978256997 0.5066311660849767 0  0.6286750085922047 0.7335059323168871 0  0 0.9499999999997918 0  0 0.8999999999995836 0  0 0.8499999999996529 0  0 0.7999999999999998 0  0 0.7500000000003466 0  0 0.7000000000006934 0  0 0.6500000000010401 0  0 0.6000000000013869 0  0 0.5500000000017335 0  0 0.5000000000020587 0  0 0.4500000000018723 0  0 0.4000000000016644 0  0 0.3500000000014564 0  0 0.3000000000012483 0  0 0.2500000000010403 0  0 0.2000000000008322 0  0 0.1500000000006241 0  0 0.100000000000416 0  0 0.05000000000020799 0  0.04999999999989965 0 0  0.09999999999981467 0 0  0.1499999999997036 0 0  0.1999999999995579 0 0  0.2499999999994121 0 0  0.2999999999992664 0 0  0.3499999999991206 0 0  0.3999999999989749 0 0  0.4499999999988292 0 0  0.4999999999986943 0 0  0.5499999999988151 0 0  0.5999999999989468 0 0  0.6499999999990784 0 0  0.69999999999921 0 0  0.7499999999993417 0 0  0.7999999999994734 0 0  0.8499999999996051 0 0  0.8999999999997368 0 0  0.9499999999998684 0 0  1 0.04999999999989965 0  1 0.09999999999981467 0  1 0.1499999999997036 0  1 0.1999999999995579 0  1 0.2499999999994121 0  1 0.2999999999992664 0  1 0.3499999999991206 0  1 0.3999999999989749 0  1 0.4499999999988292 0  1 0.4999999999986943 0  1 0.5499999999988151 0  1 0.5999999999989468 0  1 0.6499999999990784 0  1 0.69999999999921 0  1 0.7499999999993417 0  1 0.7999999999994734 0  1 0.8499999999996051 0  1 0.8999999999997368 0  1 0.9499999999998684 0  0.9499999999997918 1 0  0.8999999999995836 1 0  0.8499999999996529 1 0  0.7999999999999998 1 0  0.7500000000003466 1 0  0.7000000000006934 1 0  0.6500000000010401 1 0  0.6000000000013869 1 0  0.5500000000017335 1 0  0.5000000000020587 1 0  0.4500000000018723 1 0  0.4000000000016644 1 0  0.3500000000014564 1 0  0.3000000000012483 1 0  0.2500000000010403 1 0  0.2000000000008322 1 0  0.1500000000006241 1 0  0.100000000000416 1 0  0.05000000000020799 1 0  -0.1 1.05000000000004 0  -0.1 1.000000000000079 0  -0.1 0.9500000000001624 0  -0.1 0.9000000000003032 0  -0.1 0.850000000000444 0  -0.1 0.8000000000005848 0  -0.1 0.7500000000007256 0  -0.1 0.7000000000008665 0  -0.1 0.6500000000010508 0  -0.1 0.6000000000012352 0  -0.1 0.5500000000014196 0  -0.1 0.500000000001539 0  -0.1 0.4500000000014195 0  -0.1 0.4000000000013 0  -0.1 0.3500000000011588 0  -0.1 0.3000000000010178 0  -0.1 0.2500000000008986 0  -0.1 0.2000000000007579 0  -0.1 0.1500000000006174 0  -0.1 0.1000000000005272 0  -0.1 0.05000000000040083 0  -0.1 2.671196597248127e-13 0  -0.1 -0.0499999999998666 0  -0.0500000000000906 -0.1 0  -1.730560139634463e-13 -0.1 0  0.04999999999975802 -0.1 0  0.09999999999961506 -0.1 0  0.1499999999994613 -0.1 0  0.199999999999302 -0.1 0  0.2499999999991446 -0.1 0  0.2999999999990088 -0.1 0  0.3499999999988296 -0.1 0  0.3999999999986936 -0.1 0  0.4499999999985143 -0.1 0  0.4999999999984002 -0.1 0  0.5499999999985247 -0.1 0  0.5999999999986493 -0.1 0  0.6499999999987955 -0.1 0  0.6999999999989417 -0.1 0  0.7499999999990659 -0.1 0  0.7999999999992116 -0.1 0  0.8499999999993573 -0.1 0  0.8999999999994526 -0.1 0  0.949999999999584 -0.1 0  0.9999999999997226 -0.1 0  1.049999999999861 -0.1 0  1.1 -0.0500000000000906 0  1.1 -1.730560139634463e-13 0  1.1 0.04999999999975802 0  1.1 0.09999999999961506 0  1.1 0.1499999999994613 0  1.1 0.199999999999302 0  1.1 0.2499999999991446 0  1.1 0.2999999999990088 0  1.1 0.3499999999988296 0  1.1 0.3999999999986936 0  1.1 0.4499999999985143 0  1.1 0.4999999999984002 0  1.1 0.5499999999985247 0  1.1 0.5999999999986493 0  1.1 0.6499999999987955 0  1.1 0.6999999999989417 0  1.1 0.7499999999990659 0  1.1 0.7999999999992116 0  1.1 0.8499999999993573 0  1.1 0.8999999999994526 0  1.1 0.949999999999584 0  1.1 0.9999999999997226 0  1.1 1.049999999999861 0  1.05000000000004 1.1 0  1.000000000000079 1.1 0  0.9500000000001624 1.1 0  0.9000000000003032 1.1 0  0.850000000000444 1.1 0  0.8000000000005848 1.1 0  0.7500000000007256 1.1 0  0.7000000000008665 1.1 0  0.6500000000010508 1.1 0  0.6000000000012352 1.1 0  0.5500000000014196 1.1 0  0.500000000001539 1.1 0  0.4500000000014195 1.1 0  0.4000000000013 1.1 0  0.3500000000011588 1.1 0  0.3000000000010178 1.1 0  0.2500000000008986 1.1 0  0.2000000000007579 1.1 0  0.1500000000006174 1.1 0  0.1000000000005272 1.1 0  0.05000000000040083 1.1 0  2.671196597248127e-13 1.1 0  -0.0499999999998666 1.1 0  0.6544134087970163 0.727936971727174 0  0.6793265049116537 0.7193424310537252 0  0.7028304614009073 0.7074094129437695 0  0.724441901435249 0.6923898208454892 0  0.743811435627954 0.6746258962479614 0  0.7589999733624553 0.6533643384957444 0  0.7695987749807872 0.6296880012472492 0  0.7781233217534222 0.6053117356271248 0  0.7842116515146895 0.5802882205390655 0  0.7878044256556499 0.554870100420768 0  0.7893514281211209 0.5293333685252459 0  0.78896865546255 0.5038223207403107 0  0.7866026987886782 0.4784728276848995 0  0.7822673204970656 0.453417364588436 0  0.7760342593904681 0.4287832788774356 0  0.7677740296173918 0.4047688294531416 0  0.7575269429540855 0.381498489465202 0  0.745423570752084 0.3590815627675453 0  0.7313600637297831 0.3377609681435002 0  0.7153463532581062 0.3177037367451109 0  0.6971477741252093 0.2992813788395077 0  0.6770669712320205 0.2827341326101817 0  0.6549248890275844 0.2688340472271065 0  0.6311440829007623 0.2579036912157051 0  0.6056620450830994 0.2517268538112244 0  0.5796081264120515 0.2489376868548865 0  0.5534209352192188 0.2488456423357525 0  0.5273702049685594 0.2509288663871553 0  0.5016211484712514 0.2549898010899572 0  0.4761189357734189 0.2601920128171067 0  0.4509267498414369 0.266450505572677 0  0.4260702260539515 0.2737203431376188 0  0.4017891692781647 0.2821360217630843 0  0.3782943470263305 0.2917955134433572 0  0.3554661508810072 0.3026280465872824 0  0.3334629469871431 0.3145473355295524 0  0.3122916275057238 0.3277329690232179 0  0.2920905672742629 0.3422766642398937 0  0.272904230303225 0.3581120185857813 0  0.2546552483716566 0.3750896477784149 0  0.2374823753804268 0.3932480589656723 0  0.2212722265418543 0.4124915072570864 0  0.2059924003203222 0.4327725403511827 0  0.1918410989582811 0.4541341056269756 0  0.1801493731494253 0.4771688339845793 0  0.1716366660482392 0.5017789750957646 0  0.1704215343187293 0.5279853025257862 0  0.1755321467047429 0.553895317305634 0  0.1865731126174897 0.5776694458373399 0  0.2025845812699053 0.5983090015140063 0  0.2202667518162482 0.6172755578933193 0  0.2393262668709042 0.6346217907851995 0  0.2592340738503112 0.6506953515264483 0  0.2798782976445996 0.6656538130561058 0  0.3014468956555872 0.6792085772302202 0  0.3239154328670592 0.6912472788155514 0  0.3472405760380405 0.7016511506182824 0  0.3711410906153312 0.7108363651505383 0  0.3956393989204444 0.7187856550919689 0  0.4207156812093802 0.7252883477618838 0  0.446165174522014 0.730512876589598 0  0.4719047335976708 0.7346159811454269 0  0.49784405937271 0.7377303001175771 0  0.5239587531615815 0.7396346028437647 0  0.550175377630196 0.7402970143942926 0  0.5764563968763614 0.7397219552041389 0  0.602685639613702 0.7374874659660136 0  0.2627736870924285 0.6245487347191754 0  0.2469818568720888 0.4185879292860642 0  0.742985315417787 0.6340306508684034 0  0.76617759554475 0.5404002186835374 0  0.6347939599888228 0.7114529965549256 0  0.6126987682853321 0.2753617922001803 0  0.70643849804818 0.340337421803845 0  0.5189964095302573 0.2727603225016644 0  0.299283329904769 0.3677850459887506 0  0.3556472561200245 0.3263878920699652 0  0.4488354820475845 0.2944286609769906 0  0.3235439508498313 0.6661778767071262 0  0.3899804549179306 0.694542311689169 0  0.4631459367318946 0.7106764924797518 0  0.538018312541323 0.7194474342782418 0  0.7495178394533621 0.4226051087398939 0  0.200469939483142 0.5561108376641992 0  0.2052985363214287 0.4772432879400405 0  0.7007155446840968 0.6829649474918819 0  0.3996139249479558 0.3067975214518092 0  0.760772897615438 0.4703260507376749 0  0.5876288413730135 0.7183155459157339 0  0.7586033943660992 0.5859391144919518 0  0.7306844949884861 0.3795330867660206 0  0.673583650793357 0.3057398271071467 0  0.5696935878079642 0.267272671359503 0  0.2272835818242197 0.593611134032056 0  0.19042725670834 0.5144245369907998 0  0.488719178897487 0.7147787210116837 0  0.4813251958252356 0.6907017003643169 0  0.4546998167813174 0.6864327305384404 0  0.4734567358964978 0.6661351255781509 0  0.4442204940234592 0.6615282357108301 0  0.4599967076159055 0.6438041950184082 0  0.4851698805078898 0.640023741191282 0  0.4341722128591342 0.6354987476726883 0  0.4557538262972896 0.6101993268144437 0  0.4144512215653605 0.6059413422368591 0  0.5034048721874154 0.6049431600027608 0  0.5429033458304535 0.6361418016638904 0  0.5491116363936199 0.5875068495484532 0  0.5831408206054894 0.6238539362311768 0  0.5937188969183166 0.575108577535422 0  0.6264133802080349 0.6110248815359753 0  0.6379280871682494 0.5616845799689538 0  0.6723703843555018 0.5926147011933598 0  0.6838182418510517 0.554184305682644 0  0.6499040171171457 0.524459950345297 0  0.6891099040217742 0.521960747114467 0  0.6675008292046888 0.4893022213291959 0  0.6218650663751467 0.496807348364662 0  0.6343731269889726 0.4588159492147543 0  0.6786588305284963 0.4470321575289808 0  0.6507677442148602 0.4169905963453336 0  0.6057719026474921 0.4273030427648726 0  0.6193013045520799 0.3902282150441337 0  0.5777904418898463 0.3966071340552849 0  0.5949574000280091 0.3576056672733109 0  0.5491310110003216 0.3599691399537339 0  0.5360208569527982 0.4012552791159859 0  0.5059993740159864 0.3637489158786896 0  0.4919337033823767 0.4076440195132198 0  0.4612623575660018 0.3702675446479456 0  0.4469520692007915 0.4130237847227693 0  0.6584771971646876 0.6289603
[...]
<PointData  Scalars="v"> 
<DataArray  type="Float64"  Name="v"  format="ascii">5.9421946584139973e-20  1.2776338481473751e-19  6.0291915686959403e-20  2.6167148946326032e-21  -1.0090252143502989e-21  -3.4955073370386408e-21  -3.5492415827977875e-22  -7.5825161219437323e-21  -1.6603767310612654e-04  -2.1850219098336153e-04  -7.5148234473843707e-20  6.0697761351878884e-19  7.3433197673500161e-19  -3.7259297609444555e-19  1.8486174976386665e-18  1.5669285531051251e-18  -8.7453552907961801e-19  4.2968295462450578e-19  -1.6102236198725546e-19  9.9278025086019298e-20  1.4877410852005325e-18  5.4874765931706713e-19  -5.0521863449696449e-19  9.1826635483820478e-19  -1.3518757432184709e-18  2.7494820286737101e-19  6.3418813281297575e-19  6.5258228020981740e-19  -2.6729189414489784e-19  3.9522765370976697e-19  3.8333079661561954e-19  2.4409652733530041e-19  -2.0301995729132412e-19  6.0856940180630458e-19  -1.6181357173938881e-19  -2.3810738003136919e-18  -2.2567810596490412e-18  1.0673614093758587e-18  1.2633960988026186e-18  1.0908634782812252e-18  -7.0602050940892043e-20  7.3967477307697735e-19  8.8493398005137168e-19  5.7890412674480159e-19  7.0061480149350358e-19  1.5714081548259321e-19  3.6422989419025352e-19  -1.6026357745748237e-19  1.6483369784437007e-20  -1.4360284624429160e-19  4.6021145206540148e-19  3.4378948983419050e-18  -4.2860750806236388e-18  -4.2519472905357001e-20  1.1431130872764975e-18  3.6944091092836251e-19  -6.9857236084848079e-18  5.8241890332884638e-19  8.7040998839450329e-18  1.0629896414385517e-18  -2.1423891291046054e-18  -6.6929839185590103e-19  6.5426890472164119e-19  -3.4240282869204874e-18  -1.3697826002140655e-19  -1.0074182344513219e-19  8.9024049391618082e-19  -9.6772462354466465e-21  1.7564803119814733e-18  2.9143601021360429e-19  -3.1185742751037734e-18  2.1534883317016993e-19  3.9599487937867568e-19  2.5157825312765658e-20  6.5401511944651510e-18  -5.4971031236730720e-18  -6.3657403046676547e-18  5.0212853463630291e-18  -6.0671637323297316e-19  -5.6065934539935719e-18  -5.2005905211826863e-18  3.1586925960290331e-18  -2.5138674645559180e-19  2.5471083294986321e-19  -8.0606591479422837e-19  -6.7636570818862596e-19  6.4298671465808672e-21  3.8080376862973081e-21  8.2632155794270199e-21  8.4266578404503544e-20  5.9013283516808062e-20  2.6838714829740476e-20  2.0122319496472591e-19  7.8561313808450778e-20  -2.6075972064894983e-20  -1.9437274735848156e-20  3.4408132943676503e-20  5.0939461048969629e-20  1.9240238078822558e-19  4.0857580950244561e-20  6.8225070090208929e-20  8.8418142534464604e-20  -1.3595598804664097e-19  -4.5729363051394711e-20  1.1142061993794663e-19  7.6520602121956064e-20  -1.6764954885808563e-21  -1.3161319250658502e-20  9.1344353188514847e-21  -1.9485209669148651e-21  8.4621282455934441e-21  4.7060617999565733e-20  5.9813090121622782e-20  2.0767787969231528e-20  -1.5594552906021583e-20  6.5457147985616861e-20  -8.5027912177810611e-20  -3.4609839828376075e-19  -2.8144228414372160e-19  9.7426465877706794e-20  2.1184793083930853e-19  8.0193046171165124e-20  4.0227412694197541e-20  9.0034211789891192e-20  7.6504374497496922e-20  8.4288767821585238e-20  8.3711688667772212e-20  4.5985850402832510e-20  2.6974246993231759e-20  -7.1059792034951228e-22  -1.1001194104150264e-20  4.1528052845653015e-21  -1.0255556093773752e-21  2.9344576980866940e-21  -3.5000637881535721e-21  1.5453242172985802e-20  7.7925100302300226e-20  5.9814772650860580e-20  -5.8394187522923535e-20  -1.5082982001706995e-20  5.6181444927424506e-20  6.7885418481821399e-20  3.0427778811996707e-20  -2.6389592063372028e-20  2.0678916753529948e-20  8.8702990134221504e-20  -9.0522232489628248e-20  -1.3961374114332309e-20  9.0621610564425655e-20  6.1883916398527501e-20  -1.4683273405132628e-20  -1.8452561791871183e-20  -3.1641467591948013e-21  7.1190601339021526e-23  1.7113725682481046e-22  1.0475069636417691e-21  -3.6881131659190179e-21  4.5627060805050375e-21  3.3469885099409177e-20  4.4657282020814488e-20  3.0374065875471936e-20  3.4227454226865314e-20  4.5515798410786953e-20  2.6682395780584335e-20  8.9761626275389373e-21  1.4073031401776303e-20  -1.5340314292309614e-20  -5.0881128339502457e-20  4.3514749735941653e-20  2.6438371805266956e-20  -6.0089085162891306e-20  -3.2662846642559463e-20  1.2590234077346374e-20  4.1971515187390488e-20  3.5847338938238699e-20  1.5317137246853551e-21  5.6294609754475181e-21  6.3226059708735801e-21  -2.0918226283619587e-04  -1.9417586019613485e-04  -1.7409569148667717e-04  -1.5364715077966401e-04  -1.3082946797790451e-04  -1.0782233184033517e-04  -8.3532723671247018e-05  -6.0420441853874419e-05  -4.2163297898433233e-05  -2.2878391712530271e-05  -8.8302292633254992e-06  5.9568062122641205e-06  1.4029573909636846e-05  1.8312536815741337e-05  1.8747988346795388e-05  1.7085658170430107e-05  6.9848695484743527e-06  -8.5326285439373048e-06  -2.8048943506601111e-05  -5.8140780853509825e-05  -8.7276040978347108e-05  -1.1222383628053725e-04  -1.3620969611240484e-04  -1.4901792030705510e-04  -1.5789596852032966e-04  -1.6059920940755422e-04  -1.5691786670458708e-04  -1.4613961926475053e-04  -1.2697138417731225e-04  -1.0382197213268379e-04  -7.4059215087790464e-05  -4.0959749627095531e-05  -5.4165878369271626e-06  3.4750232437007891e-05  6.4215403302793106e-05  9.1417524797239569e-05  1.0847364101539416e-04  1.1710433111444533e-04  1.1729463867262007e-04  1.0897313327565741e-04  9.3621894786179209e-05  6.8618529205200060e-05  3.7366208760112422e-05  1.1554361114634052e-05  -9.8504023743357233e-06  -2.7098612474478497e-05  -3.9233366312387862e-05  -4.7556048058472305e-05  -5.2481892833632264e-05  -4.9595011314527537e-05  -4.5174144605876777e-05  -3.7111294150857850e-05  -3.1511948341665021e-05  -3.1634688826745022e-05  -4.0351931992651613e-05  -5.4836338271685201e-05  -7.3878988194456778e-05  -9.6484943110857158e-05  -1.2113285305416052e-04  -1.4436823101088780e-04  -1.6640329033614079e-04  -1.8571636206950247e-04  -2.0199290765561889e-04  -2.1502712868734275e-04  -2.2275109813379285e-04  -2.2791180699472218e-04  -2.2457738355502677e-04  -5.3834128247727664e-05  4.8128534508090882e-05  -1.1736926450342297e-04  -4.2101529685374550e-05  -2.4600990431586128e-04  -1.9375396458229740e-04  -7.2482220871354858e-05  -1.8126305731522207e-04  7.6460861228968047e-05  4.2118061632315332e-05  -8.6994507587162746e-05  -7.2876652056187295e-05  -1.2340048234837803e-04  -1.9825980687180266e-04  -2.5254958631700165e-04  -1.6612763857879560e-05  -7.5263997588538172e-05  -2.8860588483420311e-05  -1.8804334352362487e-04  -1.2608949201627634e-05  -1.5357068663438957e-05  -2.6100195983910416e-04  -7.5385041486304664e-05  -3.7549979719283466e-05  -1.2406416389383810e-04  -2.0292725862857270e-04  -5.9917426368530165e-05  -6.3627062427335158e-05  -2.2149518204758249e-04  -2.0354309531631093e-04  -1.8277782160495200e-04  -1.9768592092573814e-04  -1.7337027166989624e-04  -1.8504794913295645e-04  -2.0328520510716345e-04  -1.6241735776651884e-04  -1.7478019745635403e-04  -1.4149808287031976e-04  -2.0153492874696254e-04  -2.2755467603024964e-04  -2.0643395672088647e-04  -2.2187702951333732e-04  -1.9442015137989866e-04  -1.9986214826443844e-04  -1.6491538403476286e-04  -1.5751866755709184e-04  -1.2393407554441279e-04  -1.3648255626698801e-04  -1.0165885247627018e-04  -1.0836474716385442e-04  -1.4539024480654411e-04  -1.2818433765302305e-04  -8.7905677665982363e-05  -1.1384430089252780e-04  -1.4529954069967670e-04  -1.4153467412634911e-04  -1.5848989310772641e-04  -1.6662554839234214e-04  -1.6842381366560688e-04  -1.5716564035045012e-04  -1.4683185290162849e-04  -1.3633722750133417e-04  -1.0591985471109370e-04  -9.8744440357657025e-05  -1.9043329441718388e-04  -5.5816856604414885e-05  -5.3082174009996277e-05  -1.7745020961034436e-04  -1.2593751457887713e-04  -1.0777832643601190e-04  -1.1666449803454830e-04  -9.0978754943848194e-05  -9.1815400077008117e-05  -6.8707920851916141e-05  -7.1460942282440114e-05  -5.3042301893667208e-05  -4.1402972463924431e-05  -3.2192830328451774e-05  -1.2239136165685135e-05  -5.0927763208390328e-05  -9.8780847427195907e-05  -2.7924728256542282e-05  8.2097169467852857e-06  -1.2061577136361814e-04  -1.4186423403499102e-04  -2.9237610520378330e-05  -4.3406644228243293e-05  -5.5557225172950086e-05  -4.5428832123290010e-06  -7.5649720188371633e-05  -2.3548921799413570e-04  -1.2425090583386507e-04  -2.1874272593127840e-04  -1.4913568490327081e-05  -1.1627363236795386e-04  -7.3841319184645958e-05  -1.3649047700466131e-05  3.3293846753046465e-05  3.4874308906123105e-05  -1.5935113220140137e-04  -9.3029020425341343e-05  -1.0604376370337063e-04  -2.2719690390867982e-04  -2.3374330306985319e-04  2.2535918702824085e-05  4.2620583342348162e-05  -5.1221862371401451e-05  -4.4409985381826917e-05  -1.7368932307318570e-04  -1.1598724451761385e-04  -7.4234928165176913e-05  -1.1665256267005174e-04  -1.3731012709178368e-04  -1.7024030415669868e-04  -1.7513758216394258e-04  -1.7305585117040413e-04  -1.6045999869407186e-04  -1.3894752925974242e-04  -1.5108359289246322e-04  -1.1701805240794490e-04  -1.7678792092832619e-04  -2.0273849395868179e-04  -9.3242133058347272e-05  -1.4720961378173538e-04  -8.0743523487089217e-05  -7.1712584370911490e-05  -6.6854620748573346e-05  -6.1326279787262195e-05  -5.0620939250530691e-05  -6.8340851902633058e-05  -5.3889646877326023e-05  -3.6298951152802513e-05  -2.5615088603804409e-05  -5.7891568476227745e-06  -2.3085412387709728e-04  -2.3674184749316663e-04  -1.5577664272407182e-04  -6.1097454995425827e-07  -8.6838929821256175e-05  -8.3485693612481515e-05  -1.6768602109536523e-04  -1.5108537092637506e-04  -9.0789594766982641e-05  1.9583616123614325e-05  -6.2083382987718547e-05  -5.8312916380040806e-05  2.1893986620635002e-05  -1.8322803329376452e-04  4.8673266528854339e-05  7.0527792404585589e-05  -1.5386593275142126e-04  -6.1853381725719697e-05  -4.6672609199554365e-05  6.5167560232909510e-06  -1.7240407007884477e-04  -5.4688896582154096e-05  5.9139545537778421e-05  -1.2423369938650023e-04  -5.6472703135948226e-05  -1.0456605021343405e-04  -1.9000629085345387e-04  -2.0911944397806629e-04  -2.2222808475489273e-04  -2.3097088487726596e-04  1.7646365649262022e-05  -5.3073531280820910e-05  7.5717416107176378e-05  -4.5207346611300048e-05  -1.5730755709836424e-04  -4.0574464756999075e-05  -4.1224800483099907e-05  -6.2491842783942591e-05  5.4307235784805065e-05  -8.7553751231952533e-05  -8.6865949572170246e-05  -2.9301904053027914e-05  -5.2672897573701162e-05  -2.6053543137924211e-04  -1.9442943602451961e-05  -1.4453934105338779e-04  -1.1896288737652778e-05  -2.0855445994974765e-04  -2.6728943867462903e-05  -5.3001288822104772e-05  -3.4791093653618578e-05  -2.3995211774250835e-04  -5.7536557707122610e-05  -5.3199083618153441e-05  -9.8943605137052343e-05  -1.5560482256061494e-04  -1.6579528204471402e-04  -1.9377186455051633e-04  -1.1502390359682495e-04  -1.6818927900961864e-04  -1.9779598086774790e-04  -2.5586392745184563e-04  -7.5500221197578434e-05  -2.1753562146219557e-04  -1.5177913663666463e-04  -5.7580307690098038e-05  -1.5881862047744066e-04  -1.3532509862116237e-04  -1.3710915439473601e-04  -9.3700094678400185e-05  -1.1974959341538230e-04  -1.5944533889404426e-04  -2.3889236984274171e-04  -1.6099276998082838e-04  3.2732598217197063e-05  -1.6583782398820691e-04  -2.9356931217118592e-05  -1.8680609043026338e-04  -6.8190454344031510e-05  -1.8556305031448066e-04  -1.1771726518841831e-05  -1.7235569930909168e-04  -4.1655198547748216e-05  -7.4366938626100590e-05  -3.8292607258916097e-05  -2.1164048452661281e-04  -1.4071205344570918e-04  -1.3766342712022970e-04  -1.6501674104022759e-04  -9.2749874050539413e-05  -2.2940076701680540e-04  -7.3190492718043512e-05  -6.8398643152853069e-05  -1.3629684552486304e-04  3.3081382219457172e-05  -2.1902064312550562e-04  -6.3430547827347052e-05  -1.6904571973980675e-04  5.7780353586135623e-05  -9.4113758960690530e-05  -1.4584499856176082e-04  -9.5360748181077241e-05  6.6736422899845100e-05  -9.4976609958873415e-05  -1.7106357086314535e-04  -1.6172711903266870e-04  -1.1751583637019962e-05  -1.2964208362247910e-04  -5.5650405535407227e-05  1.4888177713578479e-05  -2.3746180660541796e-04  -1.1447425166296155e-04  -6.4413376304255749e-05  9.5405249705996656e-06  -5.1746429230395180e-05  -7.5059687481663666e-05  -6.8973740050859019e-05  -1.3532609461179522e-04  -1.8049253790889918e-04  -5.8976541302087733e-05  -5.3628341039028624e-05  -2.3885697396520419e-04  -2.2992828581728470e-04  -1.2652255184057332e-04  -9.9064232179064127e-05  -1.5671305918143089e-04  -1.4347693117107177e-04  -1.0898195221397010e-04  -6.6220803560899027e-05  -1.2639076803717979e-04  -2.0573072850859196e-04  -6.0968054723404691e-05  -6.3599666322341011e-05  -6.7650140334300025e-05  -2.2762234540464168e-04  -2.3401594748555010e-04  -5.2679211701368297e-05  -2.3572171205566483e-04  -1.5566066434282946e-04  1.4691157247093763e-05  -2.3833997281441871e-04  -1.4198514608373215e-04  -2.4478480869206181e-05  -8.1770750007024352e-05  -2.2168267755005484e-04  -6.2989709488185653e-05  3.3142658580619620e-05  -1.0205715928207793e-04  1.0935668746572828e-04  -4.3479869877676226e-05  -6.6688159773916627e-05  -1.5545954396357811e-04  -1.1031432141241035e-04  4.5080113218881741e-05  -8.5724511314323450e-05  -1.9267367068820149e-04  9.7174080077639359e-05  -1.4693561836501298e-04  -5.3255091241787762e-06  -3.9661006244614003e-05  -4.3638944011293118e-05  -1.1275004210989003e-04  -2.0593225490840223e-04  -1.6411052897348576e-05  7.4448672629538702e-07  1.8337696104705190e-05  -6.6668247029220124e-05  -4.0630356237647124e-06  2.4853980887684235e-05  -1.4062916337936253e-04  -1.4416694790915602e-04  1.7301055606698339e-05  -2.7120658045754156e-06  -1.2847562594263055e-05  -1.2616865619434719e-05  -1.2060135228290663e-04  -1.2514671919944523e-05  -2.1022913479926443e-04  -4.2665835138938282e-05  3.1210942945895331e-05  -2.0382783182035299e-05  -3.3141057296777444e-05  9.5165863284298405e-06  2.7289125238989591e-06  -3.7966304222122505e-05  7.0831116810939583e-06  2.1843079568010195e-05  -8.3799422240119871e-06  -1.8213228030752141e-04  -3.2425061134146833e-05  -2.4887582938849607e-05  -5.3430746916963055e-06  -2.2758461310438831e-05  8.5481753483047731e-06  2.3320099402709203e-07  -3.3720590727975714e-05  -3.4731625963070098e-05  -8.2544858832482959e-06  3.1352608519606379e-07  1.9064435301499466e-05  8.1442994430378927e-06  -8.8615702365719345e-06  -2.5757120777435728e-06  -8.2174161019549307e-06  2.6345888714774126e-08  1.6586736470645634e-05  -5.3658324347830397e-06  -3.2725566252630532e-07  -1.8511332885730306e-05  -8.0903257224058840e-06  -1.7950123385814680e-05  -7.4409629023880562e-06  3.2437401190148666e-06  -1.5012574805680704e-05  -4.6061083220481082e-06  -2.4030133108568362e-05  -1.8736047483236518e-05  -2.6034263741545651e-05  -3.8927293210082389e-05  -1.2919455613820497e-04  -1.1413272588463738e-04  -9.8563453378822506e-05  -9.8603661556275260e-05  -8.3817006718233487e-05  -1.1083185752646235e-04  -8.1592350826806625e-05  -6.5301028217699055e-05  -6.3435830761544943e-05  -4.7010739880256704e-05  -4.3889331294195737e-05  -2.9969618102515606e-05  -2.4238514889864273e-05  -3.2447362531618999e-05  -1.4601801556981645e-05  -7.4474738740793688e-06  -2.5028106906045126e-06  -6.4873632623492341e-06  4.4643640556607794e-06  1.9150650969504685e-06  1.2095614061816576e-05  1.0023964715510922e-05  1.8324964525626597e-05  -7.7382201989528834e-05  -5.7467712627725429e-05  1.7263425017795783e-05  2.2188781080751664e-05  6.0400371486970847e-06  -6.8738079005576812e-05  2.0140272140180488e-05  -3.8469544208881017e-05  -4.4667049653992016e-06  2.1689406947100064e-05  2.2351314253583266e-05  1.9817091987538304e-05  1.8168577157008569e-05  1.4958975413543586e-05  9.5715974335467601e-06  7.1007148993550029e-06  -3.2562507104332101e-06  -3.4648575148492686e-06  -1.6683732343237359e-05  -1.4494442717986227e-05  -3.3394791938588938e-05  -2.6043576413490443e-05  -4.5492302832396757e-05  -3.6131332740205896e-05  -5.6579487314283891e-05  -4.3471305765158328e-05  -6.3935032296491806e-05  -4.7580722333891968e-05  -6.6444513408739096e-05  -8.6719855716867883e-05  -8.5947184298956341e-05  -6.4246892026877285e-05  -7.9645372193207665e-05  -1.0445796006382308e-04  -9.2779466046301974e-05  -1.1949090531139812e-04  -5.7253939004277859e-05  -1.0171303847888049e-04  -1.2980235581423475e-04  -7.6615862043399118e-05  -4.3107643413397775e-05  -3.7769121055345893e-05  -1.0432441582309960e-04  -1.3565089903563166e-04  -1.3247772887499404e-04  -1.5792735259506345e-04  -1.6590151353406427e-04  -1.3489482237653329e-04  -1.5851224807608678e-04  -1.2450510332629971e-04  -1.4668362861102908e-04  -1.7716304567941187e-04  -1.6743452797938224e-04  -1.3158012444149434e-04  -1.4556279381929438e-04  -1.1227061201428237e-04  -1.2285368569963815e-04  -1.5154538910653904e-04  -1.2627667288968422e-04  -9.9337489238665084e-05  -9.8725548308130467e-05  -7.5490797243064924e-05  -7.5953512169976145e-05  -9.6789602363639001e-05  -7.1282776496870071e-05  -5.4834717924842985e-05  -5.0132950644099072e-05  -6.2777386430088882e-05  -4.3763805686786948e-05  -3.3563124709884445e-05  -2.9304448327523458e-05  -3.7467526715083874e-05  -2.5338392527281187e-05  -1.8712920392420959e-05  -1.6518961669034380e-05  -2.2428428571680266e-05  -1.0854626356844869e-05  -1.5186663758810707e-05  -2.1322704759151344e-05  -1.5443608599465658e-05  -2.2095053199793222e-05  -2.8714894035858322e-05  -9.2157351752943490e-06  -1.2419457782337595e-05  -5.8436835895335225e-06  -6.6820379467696090e-05  -1.6133614255831495e-05  -2.4340741468307431e-05  -4.7698655296556577e-05  -2.8405122444445774e-05  -2.9502459305242572e-05  -2.4194095232463594e-05  1.0226471073763365e-05  -3.6434813821101523e-05  -3.9974814596507524e-05  -5.0549856918115649e-06  -9.7762944913007299e-05  -4.6544847273575220e-05  -1.5231570176751013e-04  -1.8188695556617987e-04  -3.1218771253834010e-05  -2.7845392725128326e-05  -3.4977597478561093e-05  -1.4986528236745491e-06  1.8839814767182816e-05  -9.4446480128283902e-05  -6.9744081422018381e-05  -8.0112048725102723e-05  -2.6693032941259309e-05  -1.1114944666314647e-05  -1.9129650689542305e-04  -1.9828573621135688e-04  -1.8439322009920328e-04  -8.8879405787277587e-05  -7.4748184508426410e-05  -1.0028216091296436e-04  -7.5234597589159409e-05  -9.4882877932582417e-05  -1.1786494018323542e-04  -1.1020966943226564e-04  -8.4411728498786512e-05  -9.9398320470096084e-05  -6.9323135487345274e-05  -7.4427301995464888e-05  -9.4835147142570991e-05  -7.4032401502023264e-05  -4.8933543898165100e-05  -4.2055185080586365e-05  -5.8374547003376196e-05  -2.8597116008507224e-05  -1.4502879282966971e-05  3.7063534597104904e-06  -2.9304382646040927e-06  2.5800332353945878e-05  2.8174029760540534e-05  5.1912773740185902e-05  4.6470604503952152e-05  6.6688581344941379e-05  7.1590851489153638e-05  8.5471973244148191e-05  7.3947204855461955e-05  8.7274389984783824e-05  9.8234417765595021e-05  9.3948451296318989e-05  1.0309650109801034e-04  9.3357798215836304e-05  8.1076515452549927e-05  9.8705481061562517e-05  8.4905746628843794e-05  8.5933356690342253e-05  1.0668827709940791e-04  7.6903025645616550e-05  1.9725092268920872e-05  2.6698813916147104e-05  3.9122722553870722e-05  7.0102930146646284e-05  6.7382927144676299e-05  8.0072329475729999e-05  6.0543663810749478e-05  6.8026840526920460e-05  4.7810691469308174e-05  3.3631058017583363e-05  -8.4537787418201288e-06  1.5470163250187104e-05  4.0822770102177784e-05  8.3242558879026974e-05  -3.6841754372691892e-05  2.2241453886010529e-05  -1.7268113815196976e-04  5.1340640352896454e-05  -1.7249707834894417e-04  -2.0286498194766811e-05  -1.3056309853956652e-04  -1.3707106560603753e-04  7.2162218616441808e-05  -1.7143496282675998e-04  2.6117145330261342e-05  -4.7538122399201087e-08  -1.8850833410271493e-05  -3.2784456414806716e-05  3.4478808381735802e-05  -1.2911214551952053e-04  -2.0501033651790855e-04  -1.3456526857427657e-04  -1.1374249293216252e-04  -