<?xml version="1.0"?>
<VTKFile type="UnstructuredGrid"  version="0.1"  >
<UnstructuredGrid>
<Piece  NumberOfPoints="1277" NumberOfCells="2456">
<Points>
<DataArray  type="Float64"  NumberOfComponents="3"  format="ascii">0 0 0  0 1 0  1 1 0  1 0 0  1.1 -0.1 0  -0.1 -0.1 0  1.1 1.1 0  -0.1 1.1 0  0.5 0.5 0  0.614564872100174 0.720541091077745 0  0 0.9499999999997918 0  0 0.8999999999995836 0  0 0.8499999999996529 0  0 0.7999999999999998 0  0 0.7500000000003466 0  0 0.7000000000006934 0  0 0.6500000000010401 0  0 0.6000000000013869 0  0 0.5500000000017335 0  0 0.5000000000020587 0  0 0.4500000000018723 0  0 0.4000000000016644 0  0 0.3500000000014564 0  0 0.3000000000012483 0  0 0.2500000000010403 0  0 0.2000000000008322 0  0 0.1500000000006241 0  0 0.100000000000416 0  0 0.05000000000020799 0  0.04999999999989965 0 0  0.09999999999981467 0 0  0.1499999999997036 0 0  0.1999999999995579 0 0  0.2499999999994121 0 0  0.2999999999992664 0 0  0.3499999999991206 0 0  0.3999999999989749 0 0  0.4499999999988292 0 0  0.4999999999986943 0 0  0.5499999999988151 0 0  0.5999999999989468 0 0  0.6499999999990784 0 0  0.69999999999921 0 0  0.7499999999993417 0 0  0.7999999999994734 0 0  0.8499999999996051 0 0  0.8999999999997368 0 0  0.9499999999998684 0 0  1 0.04999999999989965 0  1 0.09999999999981467 0  1 0.1499999999997036 0  1 0.1999999999995579 0  1 0.2499999999994121 0  1 0.2999999999992664 0  1 0.3499999999991206 0  1 0.3999999999989749 0  1 0.4499999999988292 0  1 0.4999999999986943 0  1 0.5499999999988151 0  1 0.5999999999989468 0  1 0.6499999999990784 0  1 0.69999999999921 0  1 0.7499999999993417 0  1 0.7999999999994734 0  1 0.8499999999996051 0  1 0.8999999999997368 0  1 0.9499999999998684 0  0.9499999999997918 1 0  0.8999999999995836 1 0  0.8499999999996529 1 0  0.7999999999999998 1 0  0.7500000000003466 1 0  0.7000000000006934 1 0  0.6500000000010401 1 0  0.6000000000013869 1 0  0.5500000000017335 1 0  0.5000000000020587 1 0  0.4500000000018723 1 0  0.4000000000016644 1 0  0.3500000000014564 1 0  0.3000000000012483 1 0  0.2500000000010403 1 0  0.2000000000008322 1 0  0.1500000000006241 1 0  0.100000000000416 1 0  0.05000000000020799 1 0  -0.1 1.05000000000004 0  -0.1 1.000000000000079 0  -0.1 0.9500000000001624 0  -0.1 0.9000000000003032 0  -0.1 0.850000000000444 0  -0.1 0.8000000000005848 0  -0.1 0.7500000000007256 0  -0.1 0.7000000000008665 0  -0.1 0.6500000000010508 0  -0.1 0.6000000000012352 0  -0.1 0.5500000000014196 0  -0.1 0.500000000001539 0  -0.1 0.4500000000014195 0  -0.1 0.4000000000013 0  -0.1 0.3500000000011588 0  -0.1 0.3000000000010178 0  -0.1 0.2500000000008986 0  -0.1 0.2000000000007579 0  -0.1 0.1500000000006174 0  -0.1 0.1000000000005272 0  -0.1 0.05000000000040083 0  -0.1 2.671196597248127e-13 0  -0.1 -0.0499999999998666 0  -0.0500000000000906 -0.1 0  -1.730560139634463e-13 -0.1 0  0.04999999999975802 -0.1 0  0.09999999999961506 -0.1 0  0.1499999999994613 -0.1 0  0.199999999999302 -0.1 0  0.2499999999991446 -0.1 0  0.2999999999990088 -0.1 0  0.3499999999988296 -0.1 0  0.3999999999986936 -0.1 0  0.4499999999985143 -0.1 0  0.4999999999984002 -0.1 0  0.5499999999985247 -0.1 0  0.5999999999986493 -0.1 0  0.6499999999987955 -0.1 0  0.6999999999989417 -0.1 0  0.7499999999990659 -0.1 0  0.7999999999992116 -0.1 0  0.8499999999993573 -0.1 0  0.8999999999994526 -0.1 0  0.949999999999584 -0.1 0  0.9999999999997226 -0.1 0  1.049999999999861 -0.1 0  1.1 -0.0500000000000906 0  1.1 -1.730560139634463e-13 0  1.1 0.04999999999975802 0  1.1 0.09999999999961506 0  1.1 0.1499999999994613 0  1.1 0.199999999999302 0  1.1 0.2499999999991446 0  1.1 0.2999999999990088 0  1.1 0.3499999999988296 0  1.1 0.3999999999986936 0  1.1 0.4499999999985143 0  1.1 0.4999999999984002 0  1.1 0.5499999999985247 0  1.1 0.5999999999986493 0  1.1 0.6499999999987955 0  1.1 0.6999999999989417 0  1.1 0.7499999999990659 0  1.1 0.7999999999992116 0  1.1 0.8499999999993573 0  1.1 0.8999999999994526 0  1.1 0.949999999999584 0  1.1 0.9999999999997226 0  1.1 1.049999999999861 0  1.05000000000004 1.1 0  1.000000000000079 1.1 0  0.9500000000001624 1.1 0  0.9000000000003032 1.1 0  0.850000000000444 1.1 0  0.8000000000005848 1.1 0  0.7500000000007256 1.1 0  0.7000000000008665 1.1 0  0.6500000000010508 1.1 0  0.6000000000012352 1.1 0  0.5500000000014196 1.1 0  0.500000000001539 1.1 0  0.4500000000014195 1.1 0  0.4000000000013 1.1 0  0.3500000000011588 1.1 0  0.3000000000010178 1.1 0  0.2500000000008986 1.1 0  0.2000000000007579 1.1 0  0.1500000000006174 1.1 0  0.1000000000005272 1.1 0  0.05000000000040083 1.1 0  2.671196597248127e-13 1.1 0  -0.0499999999998666 1.1 0  0.6386178066150578 0.7149958282007529 0  0.6617439884885274 0.7064418650016309 0  0.6834068528084669 0.6946381561266739 0  0.7031634394184325 0.6798647494015231 0  0.7207592772904483 0.6625835520513731 0  0.7341608091863367 0.6419437304191649 0  0.7430723772709934 0.6189349665198338 0  0.7503126532967385 0.595340382616335 0  0.7553626408135348 0.5711808600287975 0  0.7582478562648959 0.5466704258319118 0  0.7593550634558721 0.5220098762415833 0  0.7588808715518999 0.4973305791831422 0  0.7567087465515707 0.4727428021861463 0  0.752894804696385 0.4483546617299075 0  0.7475747772931656 0.4242505199062734 0  0.7405474094794241 0.4005891635124125 0  0.7318030390523916 0.3775069792697128 0  0.72145324263505 0.3550975532773667 0  0.7092999914564249 0.3336180613592218 0  0.6953196417550676 0.3132802168258315 0  0.6792666377642324 0.2945367534515518 0  0.6613264393662127 0.2776014620623896 0  0.6411970844561451 0.2633331989997759 0  0.6192524672303096 0.2520953227310128 0  0.5953966260986808 0.2459298022927267 0  0.5708476971580569 0.2433926840233783 0  0.5461782402503692 0.2437989809487434 0  0.5216632768650526 0.2466364691962489 0  0.4975072970298106 0.2517179480903831 0  0.4736659615633852 0.2581138979325729 0  0.4501639142227656 0.2656706512529912 0  0.4270322553358094 0.2742921332557698 0  0.4043727711315565 0.28408712671835 0  0.3822357127038174 0.2950117678277446 0  0.3606748613347122 0.3070341256047573 0  0.339735791604992 0.3201095541378916 0  0.3194099817489112 0.3341198002634687 0  0.2998195137333552 0.3491392583737529 0  0.2810127648210525 0.3651312517920612 0  0.2628588303350351 0.3818605479380766 0  0.2455111936862312 0.3994240538499362 0  0.2290434581273267 0.4178146170077178 0  0.2135037245256733 0.4369943862228568 0  0.1989367351956363 0.4569261129491031 0  0.186729136184251 0.4783471940309722 0  0.1775881899219495 0.5012371927283987 0  0.1759837621094079 0.5257386193968739 0  0.1806858843395375 0.549933446445525 0  0.1913772378647171 0.5720461715192642 0  0.2071784904279634 0.591000690814633 0  0.2245642945127984 0.6085047671133256 0  0.2432700147868215 0.6246144939162414 0  0.262861327760988 0.6396334182131101 0  0.2831332559884754 0.6537205190037139 0  0.3041806242694093 0.6666180885291455 0  0.3259827745575758 0.678193132003799 0  0.3485204051696032 0.6882619821436279 0  0.3715186500645372 0.6972358583124638 0  0.3949288785273606 0.7050658915557445 0  0.4187652708748541 0.7114852255519531 0  0.4428800091451345 0.7167672808111099 0  0.4672015674376184 0.7209999262773388 0  0.4916665009785146 0.7243007975256779 0  0.516265365876502 0.7263749351788722 0  0.5409378871791942 0.7271749454270992 0  0.5656183801002996 0.7266990993043505 0  0.5902052454198962 0.7245131991940356 0  0.2660724412525084 0.6151573813355559 0  0.2537733842242588 0.4227189027048242 0  0.7186641147536741 0.6233215990739008 0  0.7382352923939417 0.5325646512439585 0  0.619809409954586 0.6990646082447368 0  0.6013453770358064 0.2696273829707041 0  0.6862326047159579 0.3355269071812552 0  0.5136130775675798 0.2688327645790548 0  0.3057929448096576 0.3728886778578945 0  0.3602745898614812 0.3300681787947535 0  0.4479492622307156 0.293521561375324 0  0.3252541001841919 0.6544341814771308 0  0.3891486163284586 0.6817957772223352 0  0.4586170504606714 0.6978016764697561 0  0.5291833741594738 0.7068310463641826 0  0.7234684958178712 0.4175876503216401 0  0.2051817427628866 0.5517308252287489 0  0.2113812422003182 0.4782070951663251 0  0.6807359254456421 0.6709713832497444 0  0.4018575524351541 0.3083949431199574 0  0.7331455647393664 0.4644177254835373 0  0.5757222811873166 0.7058465874332086 0  0.731927980274111 0.5766654268230405 0  0.707259806952438 0.374844163563463 0  0.6571148394111317 0.3004877155516759 0  0.5611821334935509 0.2619750972182245 0  0.2313650970277888 0.5864061909037754 0  0.1958728938325385 0.5129271566763588 0  0.482767154854316 0.701976069372354 0  0.4754826984300259 0.6786343025311221 0  0.4503256697042163 0.6743671849198122 0  0.4677748328531909 0.6548600002511723 0  0.4401351676639945 0.6503451245973925 0  0.4548583879569911 0.6332924767641301 0  0.4785417079289364 0.6296354137587608 0  0.4304056108779048 0.6253011568648725 0  0.4506405631587121 0.6008888206443312 0  0.4115734685873296 0.5969679744818002 0  0.4954188287474662 0.5956272794341729 0  0.5326451957443884 0.6258467006169095 0  0.5380633012069412 0.5785037840509341 0  0.570084792628976 0.6138414482594632 0  0.5795016667953147 0.5662570150666283 0  0.6101812105977379 0.6012563870419412 0  0.6203715853281984 0.5530415558915944 0  0.6525187675830016 0.5832293985022743 0  0.6626683377926026 0.5457100172963142 0  0.6312895835889882 0.5165944506097989 0  0.6673763710069784 0.5142145637050678 0  0.6475477359282134 0.4821245786502466 0  0.6054915045970815 0.4894715385478067 0  0.6173025501742582 0.4520724868696122 0  0.658158832240168 0.4405990509241737 0  0.6329753079765651 0.4107967597334454 0  0.5913393433988039 0.4210369481990516 0  0.6044886822386742 0.3842663941773437 0  0.5659981308084785 0.3908860854285688 0  0.582688017379859 0.3519647464572462 0  0.5401481757709832 0.3549725706763517 0  0.5272036591733562 0.3961352231327161 0  0.4999968776224278 0.3597937549221454 0  0.4860970321370872 0.4034549164274303 0  0.4581919704206128 0.3677180755658425 0  0.4439869463199194 0.4100534210413314 0  0.6402110896848937 0.6186802916706095 0  0
[...]
<PointData  Scalars="v"> 
<DataArray  type="Float64"  Name="v"  format="ascii">6.0053699018382846e-20  1.2308419782119137e-19  6.1997238020270261e-20  1.8183463065029883e-21  -1.0124367251876719e-21  -3.5295391745921464e-21  -4.5789677151238880e-22  -7.3594762248465436e-21  2.5238948878632682e-03  1.9601728272965985e-03  -7.1977778620871116e-20  6.2786252492819619e-19  7.4145166024781333e-19  -3.9729438440682666e-19  1.8260426974339513e-18  1.5505980312072111e-18  -9.4307843405360599e-19  4.8881900514627492e-19  -2.2131764477703929e-19  1.5249664473074017e-19  1.5247455528800946e-18  5.2632609235410145e-19  -6.3881362620994095e-19  9.1563160886755850e-19  -1.3420982665717582e-18  2.5765515207713388e-19  6.2797010166378256e-19  6.6375293888454732e-19  -2.6285325485893079e-19  3.8672874113593007e-19  3.6342495597534406e-19  2.3085135407966895e-19  -1.7122955660532872e-19  6.0817265377967117e-19  -1.4353612868584182e-19  -2.3795480704113875e-18  -2.2531709427850298e-18  1.0622147659927337e-18  1.2170005876385648e-18  1.0877981457063714e-18  -8.9305193824761315e-20  7.5204305349038512e-19  9.1362165939286130e-19  5.1177754809490425e-19  6.7231167671442451e-19  1.7262216312623323e-19  3.6276376368592039e-19  -1.6922588905360175e-19  1.8023123019626017e-20  -1.5035821346284840e-19  4.4841895117539987e-19  3.3758775636854482e-18  -4.3232492314888393e-18  -4.7485080049079838e-20  1.1474604154105873e-18  4.4913785641835931e-19  -7.1890285260530266e-18  4.8846303676815120e-19  8.7246157376574455e-18  1.0508573363831725e-18  -2.1527076133361130e-18  -7.7142751590745589e-19  6.7970546640229324e-19  -3.4343295205800469e-18  -1.2424255944973780e-19  -9.3831757500589286e-20  8.9498247711222189e-19  -2.2954478333352636e-20  1.7462060208607204e-18  3.0031130409495993e-19  -3.1890353186814605e-18  2.2461518629056072e-19  4.4221766347000961e-19  5.1317753164416939e-20  6.5049529709048557e-18  -5.4326118904073580e-18  -6.3815277916893870e-18  4.9927071233041241e-18  -6.2494146719078211e-19  -5.6350558944037418e-18  -5.1891424447305426e-18  3.1383329865696841e-18  -2.4530276478991180e-19  2.5904769652329644e-19  -8.0293951046104523e-19  -6.7379958156949178e-19  6.3417670286767030e-21  3.1499267839203868e-21  9.0783075268550406e-21  8.6341514612865173e-20  5.9628997347761564e-20  2.3271634389580304e-20  1.9891896827382091e-19  7.2953383757393285e-20  -2.9496270237601125e-20  -1.5401043541499335e-20  3.1878724580567910e-20  5.4601337334368122e-20  1.9890854533371580e-19  3.6386422572517540e-20  5.6985566356149305e-20  8.3702455043355675e-20  -1.3380501277286302e-19  -4.6949874792104524e-20  1.1081741402939385e-19  7.7204181177301175e-20  -1.2583108984396357e-21  -1.2975284331078973e-20  9.0754074904208819e-21  -1.8599853258740262e-21  8.4966241229786263e-21  4.5798864298232208e-20  5.6878680840355533e-20  2.0094197968727432e-20  -1.2962183821321645e-20  6.7733333044967913e-20  -8.5537289235663184e-20  -3.4659557819564327e-19  -2.8026709413397530e-19  9.5073660299271785e-20  2.0809703751486674e-19  7.8923116538961159e-20  3.8266701047056978e-20  9.2437201357640462e-20  7.7554413742644875e-20  7.7329048401427677e-20  8.0043377664919441e-20  4.7763449025623429e-20  2.7146080638643241e-20  -1.8950343339954204e-21  -1.1271305591614786e-20  4.2461726483955912e-21  -1.0586630334683989e-21  2.8593473677425955e-21  -3.7175815273780554e-21  1.5158042033662155e-20  7.5439132793645312e-20  4.9435376038593274e-20  -6.4011819599238732e-20  -1.7242190177982479e-20  6.1122767565760269e-20  7.2655044527819508e-20  1.1293204516729259e-20  -4.3322685738318077e-20  2.2428914897458810e-20  8.8730159338218345e-20  -9.6912226611216619e-20  -2.4233279079910539e-20  8.9686053951775405e-20  6.2067218291737040e-20  -1.5160400101881855e-20  -1.6637921249670682e-20  -2.7253262019931266e-21  3.7111287672274672e-22  1.3643527464638323e-22  1.2343612968799619e-21  -3.7062823099376546e-21  3.1543477949513878e-21  3.1652697628557412e-20  4.2130443666545806e-20  2.3694541834566211e-20  3.4471562922832713e-20  5.0078270046367571e-20  2.6388922875906492e-20  8.7539594565841297e-21  1.8559770858009220e-20  -1.4408377110046434e-20  -5.5025106464902200e-20  3.9966078112205910e-20  2.3461821629020628e-20  -5.7303434535027427e-20  -3.4600582528933268e-20  1.3825829472429908e-20  4.3553921761578068e-20  3.6063977398838811e-20  1.7788514705801116e-21  5.2041533527466576e-21  6.1635545347532905e-21  1.9614046643805358e-03  1.9715646487951000e-03  1.9851846568070099e-03  2.0017092323426637e-03  2.0221999530141551e-03  2.0463134635226228e-03  2.0774308810004504e-03  2.1008749107196815e-03  2.1195847062095681e-03  2.1319140357976604e-03  2.1370752545711849e-03  2.1337866209685278e-03  2.1214001580771532e-03  2.1001020252352743e-03  2.0683220231722350e-03  2.0260857701603742e-03  1.9735398213905353e-03  1.9111509604236080e-03  1.8400995553462468e-03  1.7611082019323347e-03  1.6733171700916145e-03  1.5936799472825273e-03  1.5272428266959761e-03  1.4772166979415868e-03  1.4502141317770452e-03  1.4429673891287046e-03  1.4513805491303249e-03  1.4734120980654619e-03  1.5060165816081230e-03  1.5460606897420280e-03  1.5910715364916661e-03  1.6354181708520051e-03  1.6818022118353505e-03  1.7306639777551151e-03  1.7594773713089740e-03  1.7808658646121750e-03  1.7841073163700621e-03  1.7727691470781634e-03  1.7450088153048088e-03  1.7005680753638054e-03  1.6407556684070743e-03  1.5692520616837334e-03  1.4810220679925138e-03  1.3894367351114255e-03  1.3103556085973015e-03  1.2472654020420854e-03  1.2273530848928385e-03  1.2536118124216568e-03  1.3202966496872015e-03  1.4083893234271316e-03  1.5052025745419105e-03  1.6006023828273042e-03  1.6847241268461816e-03  1.7558541009361959e-03  1.8160081363487854e-03  1.8647580826857270e-03  1.9038730694340956e-03  1.9312056494120021e-03  1.9474044754785647e-03  1.9585623904498288e-03  1.9636373855016478e-03  1.9650773486403900e-03  1.9633829829505309e-03  1.9623111863522179e-03  1.9603697589166244e-03  1.9579530355896156e-03  1.9574495369028945e-03  1.7666132419200844e-03  1.7374376111333745e-03  2.1960102191465676e-03  2.2711849309306341e-03  2.1105161721122912e-03  1.5988240803536439e-03  1.9211960670339557e-03  1.6169815119710979e-03  1.8805361420550920e-03  1.8819618905882255e-03  1.7759332231041959e-03  1.9554988103351045e-03  2.0607326413748443e-03  2.1112890992647233e-03  2.1094614556537105e-03  2.1717392572236194e-03  1.4442038547607583e-03  1.5072479891173303e-03  2.1380303154372245e-03  1.8385518909212941e-03  2.2476294323452465e-03  2.1074169944576863e-03  2.2530975444780203e-03  2.0613897249201836e-03  1.7618514511471752e-03  1.5639817008504385e-03  1.6045846461885194e-03  1.3942626713691515e-03  2.1148900111074126e-03  2.2050374384967905e-03  2.1938050910982800e-03  2.2834923883122455e-03  2.2612333218088275e-03  2.3357519497219990e-03  2.3768345850646855e-03  2.3167678354328244e-03  2.4052193318830992e-03  2.3363346456197732e-03  2.4734897522935909e-03  2.4282580586891963e-03  2.5327395232880327e-03  2.4657360383634852e-03  2.5537995335448635e-03  2.4803028822790872e-03  2.5449496470125550e-03  2.4661119272149684e-03  2.4927423280085115e-03  2.5409120295534285e-03  2.4875294157466928e-03  2.4915391274098553e-03  2.5371473399186913e-03  2.4610816612343723e-03  2.3894594625766736e-03  2.3227735056226286e-03  2.3794429498203724e-03  2.2327331858019339e-03  2.2677687084963712e-03  2.0804422391811719e-03  2.0988065895933710e-03  2.2821728173186345e-03  2.1170378375846496e-03  2.2887538036082205e-03  2.1345606375202785e-03  2.2728245297106626e-03  2.4001365529572817e-03  2.1348914554303548e-03  2.2142619683586952e-03  1.9433287733166286e-03  2.2548172377009463e-03  2.2290849532884249e-03  2.3346279910072204e-03  2.2220245266472401e-03  2.2967511111279095e-03  2.1722358716754148e-03  2.0925073861926503e-03  2.0327882907219385e-03  2.1003825879220466e-03  1.9532365826052654e-03  2.0139550857548255e-03  1.8745104966392196e-03  2.3507998504022549e-03  2.1353014607095157e-03  2.0431087565008516e-03  2.3998754962618737e-03  2.0697261809707905e-03  1.7971066311310410e-03  1.7178229025991542e-03  1.7812177299943602e-03  2.0982899141101683e-03  2.2775046151172285e-03  2.3777584497988499e-03  1.9844180583866592e-03  2.1981615471425267e-03  2.1528001391726047e-03  2.4200364513537538e-03  1.9938868967763969e-03  2.0254045170850841e-03  2.0370493878273561e-03  2.0018442347509587e-03  2.1728692234569036e-03  2.1343634018648298e-03  2.1295778873275267e-03  2.3838927319961667e-03  2.2882391380096073e-03  1.9321746517476238e-03  1.9578833466434133e-03  2.3250255478216267e-03  2.2250729701177685e-03  2.4779170308812967e-03  2.1711936257241618e-03  2.1488474272067567e-03  2.0246417545457629e-03  1.9221472110975666e-03  1.9033548040324113e-03  1.8071352591412816e-03  1.8323491006956853e-03  1.9671883801228337e-03  1.8675542535004160e-03  2.3687415647002373e-03  2.3346825408273506e-03  2.3053560212092303e-03  2.3024974249381634e-03  1.9021861133400597e-03  2.2460025616918389e-03  2.1185883798020611e-03  2.0213296119213011e-03  1.9938725014906184e-03  1.9033588982159499e-03  1.6265472032208933e-03  2.4052745207644552e-03  2.3900546156780953e-03  2.3247759037666356e-03  1.6439246721607706e-03  1.7032693055094787e-03  2.3277230277370530e-03  2.2554404559365824e-03  2.4194799963707138e-03  1.8617325327017313e-03  2.4296034054480968e-03  2.3634155823840852e-03  1.7658777740163405e-03  2.2323109439158426e-03  2.3418869269884804e-03  1.7491608629159510e-03  1.9370590692647884e-03  1.8128583427226041e-03  2.0583809593582706e-03  2.5689242119634561e-03  1.8539464412057718e-03  1.8563491017517743e-03  2.4928314109297833e-03  2.2274174202130880e-03  2.2288503302538725e-03  1.6022151151458106e-03  2.1001735612382211e-03  1.6815781317882266e-03  1.9082708660755564e-03  1.7000145731173775e-03  1.8355682940019008e-03  2.0409426973714948e-03  2.2226916583217527e-03  2.2123652330628693e-03  2.2837005652383956e-03  2.2071589615362810e-03  1.8656228217589729e-03  1.5400332079904158e-03  1.8777230641344352e-03  1.7997128313369452e-03  1.6523923646686047e-03  1.9101979109890075e-03  2.0111203722699561e-03  1.8982671249833036e-03  1.9673826751566456e-03  2.0081025162011160e-03  2.0582830513470639e-03  2.2675463375539631e-03  2.3559142173455779e-03  2.1047320022428697e-03  2.2576575149704792e-03  2.0832947712296659e-03  2.2073356593745159e-03  2.1277664388105054e-03  2.1246188565392393e-03  1.6882750953590776e-03  2.3321917074127689e-03  2.1090691972197543e-03  2.2695245036203552e-03  1.9917420834424508e-03  2.2441429162735798e-03  1.8507212981980952e-03  1.7120372746686663e-03  1.6571134869210061e-03  1.8972204746926975e-03  2.5682691331551477e-03  1.5883977316743043e-03  2.1097651543581595e-03  2.0391579038188607e-03  2.2946416575919610e-03  1.7519605338440476e-03  1.8020597216913622e-03  2.4104248301476988e-03  2.4061158993591799e-03  2.4523692689214032e-03  1.8493486063376535e-03  2.1204624354094130e-03  2.1413033408403436e-03  2.1934240012020881e-03  1.6679077551658554e-03  1.6481058379173340e-03  2.5166620774598391e-03  2.2632218039407067e-03  1.6918466195513643e-03  1.5309154267408840e-03  2.5392823785774865e-03  1.9377051651379073e-03  1.7253085543111448e-03  1.5112794448867751e-03  2.0087648113310485e-03  2.3328567177885685e-03  2.3780639019619840e-03  2.1506358398422415e-03  2.1482036113118345e-03  2.5498618638487205e-03  2.2223114141548990e-03  2.1204376309004284e-03  1.3823473227246739e-03  2.4172933243536620e-03  1.8111712877669466e-03  1.8230631653790119e-03  2.3906167616375099e-03  2.3455180334657731e-03  2.2159106334440114e-03  1.9596213502272425e-03  2.3253505010074351e-03  2.4193082178581762e-03  2.0987946717878998e-03  1.7732917630532785e-03  1.9754472591716320e-03  1.9403594177772969e-03  1.8515093561104437e-03  2.1319238101609244e-03  1.7753098044074754e-03  1.7196714284236055e-03  1.9515977520261759e-03  2.2040224308814030e-03  1.8519289010043305e-03  1.9366937353573969e-03  2.0251588269425136e-03  2.3843108191918959e-03  2.4394584309429543e-03  2.0707429031485724e-03  2.4023719447513825e-03  1.5988532710911867e-03  2.0867566010603850e-03  2.1686373013270195e-03  2.2904148732193082e-03  2.1886723432167658e-03  2.2786027487944030e-03  2.0057410278119009e-03  1.9647971614681395e-03  1.9845631447543179e-03  2.1842223518010228e-03  1.8803169980076155e-03  2.1911154401051611e-03  1.5380439380759876e-03  1.8933220762364039e-03  2.2763496588429611e-03  1.9976211395183749e-03  2.2550861386776157e-03  2.3608494983215628e-03  1.3916994593442227e-03  2.3331402118417356e-03  2.4814979900950008e-03  2.0763501456313336e-03  2.1762124659318975e-03  2.2716561069938209e-03  2.0997570189373762e-03  2.1061222872244966e-03  2.1984501070077839e-03  2.3078538900203950e-03  1.9566992099413747e-03  2.4310614912580481e-03  1.7003650862995479e-03  1.7114064033140158e-03  1.6401332604415405e-03  1.9035856418798862e-03  1.9385635561780974e-03  1.6612608648758106e-03  1.8296085049095618e-03  1.8747670349517367e-03  1.5927211646270863e-03  1.8778236579837762e-03  1.8515534139784378e-03  1.4732007373936774e-03  1.5433388750750311e-03  1.4831142775264556e-03  1.8704007481665187e-03  2.2091450890101430e-04  1.8555618260309001e-04  1.9323903457676492e-04  1.9913305202143117e-03  2.3177003011253401e-04  2.3008704504768059e-04  1.3830869632106518e-03  1.3701600623180214e-03  1.9856141768252338e-03  2.3652342825162813e-04  2.0396469688735348e-03  3.1459775228839652e-04  1.4153161124118067e-03  2.1613724872599050e-04  1.8729224156920671e-03  1.3046086192652665e-03  1.3444450579183221e-03  3.4540977446504030e-04  3.3713766893428204e-04  2.0317411284425050e-03  2.9012728961717925e-04  3.7343886948376051e-04  3.5638586001230261e-04  2.8058360721642725e-04  4.0491552170241352e-04  1.8805765424561452e-03  3.7411426406891435e-04  2.5279045976994003e-04  1.1917439043770809e-03  3.2697563824262966e-04  4.2787376107216818e-04  4.1017290824794239e-04  1.1532239661766336e-03  3.1907363492166490e-04  3.2760576187469215e-04  1.4749326174860739e-04  1.4771890108417472e-04  3.3948368946280593e-04  1.6909215017378806e-04  1.3949893275135426e-04  2.8726650878545604e-04  1.4000009002088559e-04  1.3163880380242802e-04  9.5556780296838202e-05  7.5828407742501390e-05  1.1267551162963119e-03  1.0650835441193046e-03  1.0020797063263714e-03  9.0511645624422336e-04  9.8563670343234343e-04  8.3153649154873728e-04  6.9771523285410385e-04  9.3914891463810874e-04  7.5376115315398692e-04  8.6529943709910142e-04  1.1782886207032139e-03  1.4151764171653964e-03  1.3772186391316319e-03  1.4304821241994607e-03  1.2943493988331145e-03  1.3323544582746379e-03  1.2518156431206081e-03  1.1742686056842916e-03  1.2289030228656598e-03  1.0289636466926024e-03  1.0445121311209245e-03  1.2237333517913238e-03  1.0339687897450781e-03  1.2057739525440333e-03  8.6792344820063431e-04  9.8911627945600863e-04  1.1456874795659404e-03  9.1056517056940756e-04  7.3440822512587463e-04  1.0385009280119493e-03  1.2978489931024316e-03  1.1649381604763953e-03  1.4713476421616722e-03  1.2855181497672843e-03  9.9713014019790313e-04  8.3370773957125205e-04  1.5558422461099909e-03  1.4195354673276913e-03  7.9423216881548088e-04  8.0688748078011261e-04  1.0723748513325223e-03  1.3826276467225618e-03  1.5404550992663218e-03  1.1458963802139530e-03  1.4643780441390532e-03  1.2052707269093190e-03  1.5232204214196236e-03  1.2497532447261497e-03  1.6002496320047729e-03  1.2760937385425367e-03  1.6136164959590644e-03  1.2662787409360580e-03  1.5531683720156650e-03  1.2481808724552222e-03  1.5418680195492410e-03  1.2083262763884785e-03  1.4371418773574660e-03  1.1377453340338151e-03  1.3393312215661893e-03  1.0535193529895208e-03  1.2250755136811659e-03  9.4539988994325611e-04  1.0962865321074323e-03  1.3582188424186331e-03  1.2018690961726006e-03  9.5243123097367433e-04  1.0274400591108867e-03  1.2646301256371102e-03  1.0612966754057970e-03  1.2859135097061998e-03  7.8741183732552436e-04  1.0568301476320985e-03  1.2715944105848329e-03  8.4615021493806934e-04  6.8429056074887609e-04  5.5593759197515623e-04  1.0012722458290204e-03  1.2399227570359670e-03  1.5211705816559418e-03  1.4735839214745105e-03  1.4627324220894376e-03  1.1878171676310146e-03  1.3690760998037214e-03  1.0881028483634497e-03  1.2754096483547637e-03  1.5299323715729448e-03  1.4841686473102767e-03  1.1864960581117075e-03  1.3637371811051719e-03  1.0790397245208560e-03  1.2518618055955553e-03  1.5110001668939672e-03  1.4222765321893925e-03  1.1427662779446839e-03  1.2803962488655344e-03  1.0166502486053108e-03  1.1678270268986905e-03  1.4304331832766153e-03  1.2935811963247683e-03  1.0426663919441536e-03  1.1521651456744843e-03  1.3872141644188693e-03  1.2395182468781716e-03  1.0087631754425008e-03  1.0810121454561752e-03  1.3000374167004048e-03  1.1247891884442706e-03  9.1228839809491427e-04  9.3423317989252289e-04  1.1252262614197099e-03  7.3646675267285511e-04  9.1706324656953115e-04  1.0847121722448931e-03  8.6814046287135083e-04  1.0120547201459295e-03  1.2966585550294714e-03  6.7541264595428693e-04  6.9495853473995172e-04  5.3233635153545245e-04  1.5977044982053838e-03  7.7469059081367790e-04  9.4117300720440006e-04  6.2529421077951036e-04  1.1262620921445806e-03  1.0047521452512490e-03  8.1777411310460322e-04  8.8425541082923361e-04  1.2416584894432438e-03  6.7475144610990620e-04  5.5652972741476985e-04  8.8050024517360103e-04  6.0477903005771733e-04  1.6411431784827697e-03  1.6516063152453356e-03  7.6440859882087630e-04  8.7048816507020576e-04  1.7879755963414728e-03  3.8256269867130297e-04  1.7612516596434077e-03  8.8167934845689660e-04  8.4528592393416082e-04  1.4617199335470871e-03  3.8504786286136815e-04  8.6992161562508136e-04  1.6793653044594287e-03  1.7226818515626826e-03  1.5960729802651434e-03  9.5968565641149043e-04  7.5576539391674659e-04  9.5089312436154696e-04  6.9574321085332229e-04  8.5635793074605138e-04  1.0722532145252608e-03  1.0071147450477801e-03  7.8335529370206452e-04  9.8391456658447423e-04  7.1776452577197866e-04  8.8438839755591685e-04  1.0735733398068213e-03  1.0685748463774855e-03  8.1525571726820444e-04  9.8156854667636709e-04  1.1891775608176376e-03  1.1532045450100648e-03  9.1760363998790687e-04  1.0633596508554685e-03  1.2726164233630489e-03  1.2012365679068765e-03  9.7942580823538652e-04  1.1460597165728504e-03  8.9300343716392145e-04  1.0109179434807274e-03  1.1881453974877350e-03  1.1317916174039865e-03  8.9869559139161930e-04  9.6035171484793954e-04  1.1616580886132232e-03  9.8762933822720434e-04  1.1792829807729351e-03  9.8470782166704606e-04  7.9399233658022635e-04  1.1558921591690273e-03  9.4037875647074430e-04  1.0966317852899921e-03  1.3535773118995291e-03  7.6783147889130960e-04  1.3895234297247427e-03  7.4569118997219665e-04  6.5384627836541668e-04  8.4919086720307573e-04  1.0052504532352669e-03  1.2473311527628466e-03  1.1519347052541535e-03  1.3262857455708359e-03  9.2756092964672518e-04  1.0194816058024527e-03  1.4350438963763460e-03  1.5252220302205772e-03  1.4817212018299799e-03  1.3965691169264386e-03  1.1334238157354446e-03  4.9897174228440339e-04  1.6589730702188082e-03  1.2502523917155722e-03  1.7048210052029824e-03  6.4624713152111092e-04  1.3154345915767616e-03  1.2977208757534782e-03  1.4390269240434040e-03  1.5963047662319683e-03  7.8957824192233458e-04  1.7783481377317424e-03  1.7942973320769291e-03  1.9336355036370149e-03  6.3557088128895708e-04  1.1781612945942278e-03  1.8102287441176589e-03  1.9107207428622314e-03  1.8392905716126144e-03  1.8089453246569528e-03  1.8517336328761915e-03  1.7310504247153166e-03  1.7800933291776254e-03  4.1752253734345237e-04  5.6696405245730943e-04  1.3457402866599863e-03  1.3686188111672792e-03  4.3819139305369180e-04  4.6392813122536397e-04  6.2605477165465306e-04  6.6394724812083119e-04  1.7790102319638838e-03  1.8859026495654583e-03  1.8111871554283491e-03  3.6259336112286965e-04  1.7936036800633855e-03  1.7882540866527533e-03  1.5434322477440748e-03  1.3175587046802624e-03  1.4967253002103179e-03  1.5342481