<?xml version="1.0"?>
<VTKFile type="UnstructuredGrid"  version="0.1"  >
<UnstructuredGrid>
<Piece  NumberOfPoints="1078" NumberOfCells="2058">
<Points>
<DataArray  type="Float64"  NumberOfComponents="3"  format="ascii">0 0 0  0 1 0  1 1 0  1 0 0  1.1 -0.1 0  -0.1 -0.1 0  1.1 1.1 0  -0.1 1.1 0  0.5349707371714774 0.5900827594945587 0  0 0.9499999999997918 0  0 0.8999999999995836 0  0 0.8499999999996529 0  0 0.7999999999999998 0  0 0.7500000000003466 0  0 0.7000000000006934 0  0 0.6500000000010401 0  0 0.6000000000013869 0  0 0.5500000000017335 0  0 0.5000000000020587 0  0 0.4500000000018723 0  0 0.4000000000016644 0  0 0.3500000000014564 0  0 0.3000000000012483 0  0 0.2500000000010403 0  0 0.2000000000008322 0  0 0.1500000000006241 0  0 0.100000000000416 0  0 0.05000000000020799 0  0.04999999999989965 0 0  0.09999999999981467 0 0  0.1499999999997036 0 0  0.1999999999995579 0 0  0.2499999999994121 0 0  0.2999999999992664 0 0  0.3499999999991206 0 0  0.3999999999989749 0 0  0.4499999999988292 0 0  0.4999999999986943 0 0  0.5499999999988151 0 0  0.5999999999989468 0 0  0.6499999999990784 0 0  0.69999999999921 0 0  0.7499999999993417 0 0  0.7999999999994734 0 0  0.8499999999996051 0 0  0.8999999999997368 0 0  0.9499999999998684 0 0  1 0.04999999999989965 0  1 0.09999999999981467 0  1 0.1499999999997036 0  1 0.1999999999995579 0  1 0.2499999999994121 0  1 0.2999999999992664 0  1 0.3499999999991206 0  1 0.3999999999989749 0  1 0.4499999999988292 0  1 0.4999999999986943 0  1 0.5499999999988151 0  1 0.5999999999989468 0  1 0.6499999999990784 0  1 0.69999999999921 0  1 0.7499999999993417 0  1 0.7999999999994734 0  1 0.8499999999996051 0  1 0.8999999999997368 0  1 0.9499999999998684 0  0.9499999999997918 1 0  0.8999999999995836 1 0  0.8499999999996529 1 0  0.7999999999999998 1 0  0.7500000000003466 1 0  0.7000000000006934 1 0  0.6500000000010401 1 0  0.6000000000013869 1 0  0.5500000000017335 1 0  0.5000000000020587 1 0  0.4500000000018723 1 0  0.4000000000016644 1 0  0.3500000000014564 1 0  0.3000000000012483 1 0  0.2500000000010403 1 0  0.2000000000008322 1 0  0.1500000000006241 1 0  0.100000000000416 1 0  0.05000000000020799 1 0  -0.1 1.05000000000004 0  -0.1 1.000000000000079 0  -0.1 0.9500000000001624 0  -0.1 0.9000000000003032 0  -0.1 0.850000000000444 0  -0.1 0.8000000000005848 0  -0.1 0.7500000000007256 0  -0.1 0.7000000000008665 0  -0.1 0.6500000000010508 0  -0.1 0.6000000000012352 0  -0.1 0.5500000000014196 0  -0.1 0.500000000001539 0  -0.1 0.4500000000014195 0  -0.1 0.4000000000013 0  -0.1 0.3500000000011588 0  -0.1 0.3000000000010178 0  -0.1 0.2500000000008986 0  -0.1 0.2000000000007579 0  -0.1 0.1500000000006174 0  -0.1 0.1000000000005272 0  -0.1 0.05000000000040083 0  -0.1 2.671196597248127e-13 0  -0.1 -0.0499999999998666 0  -0.0500000000000906 -0.1 0  -1.730560139634463e-13 -0.1 0  0.04999999999975802 -0.1 0  0.09999999999961506 -0.1 0  0.1499999999994613 -0.1 0  0.199999999999302 -0.1 0  0.2499999999991446 -0.1 0  0.2999999999990088 -0.1 0  0.3499999999988296 -0.1 0  0.3999999999986936 -0.1 0  0.4499999999985143 -0.1 0  0.4999999999984002 -0.1 0  0.5499999999985247 -0.1 0  0.5999999999986493 -0.1 0  0.6499999999987955 -0.1 0  0.6999999999989417 -0.1 0  0.7499999999990659 -0.1 0  0.7999999999992116 -0.1 0  0.8499999999993573 -0.1 0  0.8999999999994526 -0.1 0  0.949999999999584 -0.1 0  0.9999999999997226 -0.1 0  1.049999999999861 -0.1 0  1.1 -0.0500000000000906 0  1.1 -1.730560139634463e-13 0  1.1 0.04999999999975802 0  1.1 0.09999999999961506 0  1.1 0.1499999999994613 0  1.1 0.199999999999302 0  1.1 0.2499999999991446 0  1.1 0.2999999999990088 0  1.1 0.3499999999988296 0  1.1 0.3999999999986936 0  1.1 0.4499999999985143 0  1.1 0.4999999999984002 0  1.1 0.5499999999985247 0  1.1 0.5999999999986493 0  1.1 0.6499999999987955 0  1.1 0.6999999999989417 0  1.1 0.7499999999990659 0  1.1 0.7999999999992116 0  1.1 0.8499999999993573 0  1.1 0.8999999999994526 0  1.1 0.949999999999584 0  1.1 0.9999999999997226 0  1.1 1.049999999999861 0  1.05000000000004 1.1 0  1.000000000000079 1.1 0  0.9500000000001624 1.1 0  0.9000000000003032 1.1 0  0.850000000000444 1.1 0  0.8000000000005848 1.1 0  0.7500000000007256 1.1 0  0.7000000000008665 1.1 0  0.6500000000010508 1.1 0  0.6000000000012352 1.1 0  0.5500000000014196 1.1 0  0.500000000001539 1.1 0  0.4500000000014195 1.1 0  0.4000000000013 1.1 0  0.3500000000011588 1.1 0  0.3000000000010178 1.1 0  0.2500000000008986 1.1 0  0.2000000000007579 1.1 0  0.1500000000006174 1.1 0  0.1000000000005272 1.1 0  0.05000000000040083 1.1 0  2.671196597248127e-13 1.1 0  -0.0499999999998666 1.1 0  0.5665608103899219 0.5845330718664039 0  0.5940825912302581 0.5652110286904961 0  0.6039467677847284 0.5331877060122298 0  0.6056597214136665 0.5011300909152444 0  0.6046538529293893 0.4693905297724148 0  0.6008118774107497 0.437883619807605 0  0.5937648070777085 0.4065736638803859 0  0.5826903574034139 0.3758064569176748 0  0.5653591053449141 0.3470660831335655 0  0.538218527440076 0.3269619745903835 0  0.5065429788946738 0.3260066597346039 0  0.4772858810348546 0.3339595564914842 0  0.4497875702567108 0.3446946662470112 0  0.4232503730964218 0.3569645609154694 0  0.3974835624826989 0.3702907715209401 0  0.3723501165417389 0.3844278474391294 0  0.3477446456514536 0.3992395488070949 0  0.3237186758279642 0.4147426729665452 0  0.3002556069326432 0.4309929771123525 0  0.2775204512224156 0.4481623400122533 0  0.2559988144428495 0.4668078677580448 0  0.2377636754004693 0.4890717599806249 0  0.2433802765600473 0.5165775438054108 0  0.2699466239987307 0.5340664225947828 0  0.2981010965200245 0.5468500206948448 0  0.3266855293598076 0.557339068007136 0  0.3555958216377625 0.5662125754443514 0  0.3847405662554875 0.5737536835741019 0  0.4141128515686937 0.5800083762131027 0  0.4437715367157935 0.5849575799496349 0  0.4737108038117992 0.5885271862572398 0  0.5040509649449669 0.5904345382739905 0  0.5750458591976801 0.4560696643426433 0  0.4240960765200806 0.3907499152962492 0  0.4654278473138339 0.5562049206679598 0  0.35031516241634 0.4313949844969597 0  0.4012740214371658 0.5486144189606906 0  0.4776759417231073 0.3681102574482865 0  0.5217844974932956 0.5603310742096548 0  0.3445577829166852 0.5341673280454533 0  0.5612977977187805 0.3966783925068668 0  0.3050892134595867 0.4637118877869726 0  0.5755972132974939 0.5171235865476542 0  0.5308153491333963 0.3525328825966435 0  0.2900520669422226 0.5136922277215353 0  0.2636054866080364 0.4999752814968188 0  0.5716803325575731 0.5492599681502317 0  0.5426669737325274 0.5338098537709474 0  0.5503680676808759 0.4991413849621261 0  0.5208579213845212 0.5105542066917604 0  0.5253525312862651 0.4788471302326363 0  0.496359479322276 0.4893373943535668 0  0.5008981980453736 0.4566936977891235 0  0.4718427148058887 0.4673249037509093 0  0.4757436489140384 0.4347014229303571 0  0.4471100729098559 0.444986212121311 0  0.4431848137227468 0.4778112332559351 0  0.418818736566844 0.4550647285844712 0  0.5048000143332241 0.4242593495566806 0  0.4152130638042556 0.4876037260986286 0  0.3921537278814233 0.4651295175313801 0  0.3888748626762085 0.4961257548908139 0  0.4385163753782023 0.5108937664716553 0  0.3964301066397367 0.4334289041391678 0  0.3659957843380776 0.4746797092376986 0  0.4887714889239095 0.5247651386514735 0  0.4781978559972071 0.4021631778666997 0  0.5046904573326325 0.3916612453246023 0  0.5287018783516784 0.4479381237596824 0  0.4673385162639563 0.5002681001230125 0  0.5369370985574062 0.4166818055055593 0  0.4500037521596765 0.4126903335372542 0  0.4225671102907593 0.4230677569517199 0  0.4337927124277355 0.5467707565046108 0  0.3727943689182098 0.5422730548405867 0  0.4944265936478582 0.559404745838693 0  0.3267507976707174 0.4462280955454241 0  0.3355805077157417 0.4785615004547656 0  0.4505745510270017 0.3792612223332902 0  0.361735115874359 0.5083051165611566 0  0.3171332349852468 0.5258659497257882 0  0.283715690646588 0.4812135696598518 0  0.3976033690497103 0.4025144307652005 0  0.5703917158843106 0.426071009438592 0  0.577315366470335 0.4858147869553412 0  0.4124096296834953 0.5186425878078862 0  0.3093042766175336 0.4950968677696072 0  0.5547733146278228 0.3718670960122519 0  0.3731445460506271 0.4157855593470639 0  0.5051073558507551 0.359949394125386 0  0.4602165085645924 0.5276726323850296 0  0.5328997285839412 0.3842590363177981 0  0.5519428081984807 0.4693417490182005 0  0.3337238889546801 0.5084332012173791 0  0.3719222808368945 0.4453346120710487 0  0.5128010894823372 0.5366684400792208 0  0.5468819959263478 0.5639555582039695 0  0.3874682098312199 0.5228263992838266 0  0.5526705651418107 0.4432396100766602 0  0.3479127119744573 0.4556752619110827 0  0.6028559454987105 0.3857454581064013 0  0.6223036551815357 0.4848515163031975 0  0.3656270223634526 0.586810268182489 0  0.5487657259811242 0.6039364420684026 0  0.9891823878317703 0.7095225200937302 0  0.6512437711190524 0.9917509257889573 0  0.454697654582092 0.604770420321637 0  0.9958788124434208 0.5452601258483745 0  0.9842037814052768 0.2807831494126566 0  0.2911291081147204 0.9799225220649361 0  0.3493706535481611 0.3737719990385108 0  0.426558030513318 0.3315764773577333 0  0.4479983384822775 0.9893271940257184 0  0.2791166969619283 0.5561777539729432 0  0.06530948371773759 0.7558088938025336 0  0.7084633305947707 0.05408539257009036 0  0.2756723123597093 0.421886565173978 0  0.6151894265831416 0.5505398292099892 0  0.807411405165075 0.9905334382522094 0  0.2478068939878767 0.05830741619639987 0  0.06812241091910376 0.247333959225002 0  0.2339979873635517 0.4610637488012476 0  0.5617685164632912 0.06101853816320518 0  0.4069387301750668 0.05828143355026777 0  0.8501420361689063 0.04858194710557796 0  0.2221290822299798 0.5037385220295103 0  0.4866403854020921 0.3135482449045149 0  0.06531957182503943 0.6027217253913383 0  0.9926360950482783 0.8553846285808424 0  0.06482252552523503 0.3460758740869825 0  0.6069209236039411 0.5774367444336982 0  0.6289713215988714 0.5652708546934454 0 
[...]
<PointData  Scalars="v"> 
<DataArray  type="Float64"  Name="v"  format="ascii">9.0795555374145793e-21  5.2513231074324609e-20  -9.8486084663996028e-21  4.6582131389160375e-20  -2.8788638341234357e-21  -8.9017964543735995e-22  6.3028976723250452e-22  -3.0858308851586276e-21  2.4702207731225580e-02  2.0861802939583974e-20  4.0576991586895657e-19  3.5231473497087964e-19  -1.2732704292182914e-19  9.2668378254214330e-19  0.0000000000000000e+00  -6.9272751348248234e-19  0.0000000000000000e+00  -4.5968155658082456e-19  7.4110095784941063e-19  6.3448884957832352e-19  9.0156868474602732e-19  -3.2837218990764703e-19  -1.4758179323596530e-19  -3.2231193065550648e-19  5.3615897822649557e-19  8.9963324738455469e-20  4.5150748567101531e-19  -1.4736914384874870e-19  2.5644143363609769e-19  1.5409809792970218e-19  -2.8682870769085471e-19  2.8967358729723135e-19  7.8696215719452303e-20  6.9592958067657187e-19  -1.2280891484376799e-18  -1.8962668599647910e-18  7.1407702964858647e-19  4.6665727454393841e-19  2.3832833676097438e-19  2.2703442111122660e-19  6.1135391058286272e-19  4.9447000616378852e-19  -3.0184076137336594e-19  4.5634292574997629e-19  -6.0090580330977334e-20  -1.1814651818780791e-19  -9.8825680287666980e-20  -9.2424399177990239e-20  -2.1325332139722194e-20  2.0955919821919056e-19  3.4461527548327713e-20  -3.6840317166908657e-19  3.4476987851627556e-19  -2.3193019413971343e-19  -1.5759700503835636e-19  1.6726859426916693e-19  4.2844983557575725e-20  3.0298643312495693e-19  4.8954483167517921e-19  -3.6619820242663205e-20  -8.8097056844844793e-20  2.1916985174832562e-19  -2.7995766336935002e-20  -1.0527469700062906e-19  -3.6461436618427417e-20  -3.0573368046171834e-20  7.0377658564149434e-20  3.9804266286938688e-20  -4.5587923510466783e-20  -1.9704216461847838e-20  -1.1436790021404657e-19  3.4406736662801051e-19  -2.1990332879354288e-19  2.9604732774807364e-19  -3.0233926865338135e-19  -2.2275151721330473e-19  -2.2622882023529794e-19  9.1307031791720996e-20  -3.3503145339523535e-19  -6.2229125073751445e-19  -7.8858432530139527e-20  2.5675492026736217e-19  1.0363065084185511e-19  7.2336664601767046e-20  -6.4401288009410923e-20  2.5366298377277865e-21  4.9735940774780483e-22  1.4821833076026136e-20  5.3026178550321368e-20  2.8152375105986414e-20  3.4717579974926764e-20  5.8622463620048214e-20  -6.9483851278811201e-20  -5.2175038116497401e-20  -5.3085635360829308e-20  3.8963912808208065e-21  7.1425015970636649e-20  1.2795970546470624e-19  6.7820370604310442e-20  5.5642112323786517e-20  1.5466596107905984e-20  -3.6163387861460507e-20  4.7823446571218387e-20  4.1453170527199988e-20  4.7438862523538484e-20  1.0624411637234316e-20  -1.4065264484266643e-20  5.6093062237940426e-21  -2.2380715661253107e-21  2.9444690634240238e-21  3.3779035782036067e-20  9.4901277532178248e-21  -1.0033838955118020e-20  -8.6832423927887309e-21  4.1549541442872107e-20  2.4379721548574611e-20  -1.6604949714154306e-19  -2.2227787699983354e-19  3.8036503663186258e-20  1.0324891991751205e-19  1.9067411100194135e-20  4.0428014825741513e-20  8.7833163256941813e-20  4.5087319963830409e-20  -9.1871434857586484e-21  3.1394566834208774e-20  1.0912152794894467e-20  -1.9392997872301415e-20  -1.0797955460602218e-20  2.9069693528529194e-21  2.1418000145014815e-21  2.3311957176546714e-21  2.7323432414777278e-21  -1.0884909006050189e-20  2.5484992769845511e-21  2.7174879366313616e-20  -6.6418411595639945e-21  -2.4214069307281558e-20  1.5561587530427205e-20  -1.4396279221461351e-20  -2.2879173193587703e-20  1.0973725261867288e-20  2.5427635902019190e-20  4.7155585429695053e-20  8.7693992449325368e-20  6.5735137803012422e-21  -1.0799908250238835e-20  2.2108379515139985e-20  5.0380092971607655e-21  -1.9148462885116981e-20  -5.9726219972489687e-21  -3.3623239525497111e-21  -1.5352781619129366e-21  1.9186694167530569e-22  -1.2846369106463292e-21  7.7870313888674638e-22  8.4753187074590961e-21  4.7480245233350515e-21  -2.6771406789582131e-21  -1.1168947239016517e-20  5.8180882494053123e-21  1.7770299237141362e-20  4.1727590100538706e-21  9.5464317763978317e-21  -1.9533593088464262e-20  -4.5515333193378700e-20  -2.0355428605743538e-20  8.2810120731861756e-22  -4.2336976406308694e-20  -8.2199270141717345e-20  -1.5684315591572872e-20  3.0725319235823800e-20  2.3007358458579602e-20  4.1003350484471981e-21  -3.0761412356973898e-21  2.2733266648788493e-21  2.8201716225042770e-21  2.4612315561344057e-02  2.4550465833881575e-02  2.4636839872761086e-02  2.4623001991125597e-02  2.4424863273378596e-02  2.4035936482559445e-02  2.3460761239263481e-02  2.2706588177205250e-02  2.1836500902612285e-02  2.1124853309411759e-02  2.1004430013798661e-02  2.1147009187171970e-02  2.1263811945085642e-02  2.1271319230927968e-02  2.1154822045687808e-02  2.0894520677646064e-02  2.0486117553255592e-02  1.9928974150711980e-02  1.9223988247819707e-02  1.8391085033845754e-02  1.7477416145419998e-02  1.6665732069916304e-02  1.7087545652126064e-02  1.8540243681009871e-02  1.9887727683028402e-02  2.1076233371750110e-02  2.2095355791208252e-02  2.2952419692064411e-02  2.3642561608598456e-02  2.4159783118199128e-02  2.4503442246669477e-02  2.4693533788241427e-02  2.4936641132453218e-02  2.2745556167500545e-02  2.5096433246341161e-02  2.1614853643926627e-02  2.3898538632543240e-02  2.2824402112656374e-02  2.5402935875383274e-02  2.2148339912670484e-02  2.3801596201435817e-02  2.0225612123239832e-02  2.5346301500103308e-02  2.2488628544331344e-02  1.9798587945823325e-02  1.8467204635917087e-02  2.5237109237863008e-02  2.5565796687611220e-02  2.5543310675741941e-02  2.5667714477374304e-02  2.5517041825237004e-02  2.5535984659104467e-02  2.5212038032942710e-02  2.5105880247291622e-02  2.4634659027135613e-02  2.4423577440698657e-02  2.4803614304488728e-02  2.4017035830482689e-02  2.4626678688631810e-02  2.4294133108185484e-02  2.3459931079165906e-02  2.3626404471136429e-02  2.4863055146732555e-02  2.3071150363813863e-02  2.2733914063424634e-02  2.5532308201946720e-02  2.3856843210420985e-02  2.3729805340285962e-02  2.5106347352404437e-02  2.5302909873328821e-02  2.4450727395055966e-02  2.3768680454557309e-02  2.3497125232749352e-02  2.4673095716090609e-02  2.3101095654884413e-02  2.5334329824540293e-02  2.0957985152698189e-02  2.1628781159011751e-02  2.2866272620561828e-02  2.2793024855400384e-02  2.1031742424017546e-02  1.9381719596692219e-02  2.2453030055338309e-02  2.4455201414082823e-02  2.5226885993228254e-02  2.4292166053380942e-02  2.0614614945762024e-02  2.3076273876101349e-02  2.2069686778071609e-02  2.2720254736173961e-02  2.5194241048531026e-02  2.3549912965967378e-02  2.5307078928378447e-02  2.1703353402089412e-02  2.2553419481040927e-02  2.5578659674133242e-02  2.5282383626381823e-02  2.3606096626861785e-02  2.4920488745510623e-02  2.1875943823702143e-02  2.2740836494968324e-02  2.4194809553550443e-02  2.2191393467389881e-02  2.4351187864747947e-02  7.1498511224185395e-04  5.8938990559428571e-04  2.3964862454536877e-02  3.4558586536857848e-04  9.9540789855880312e-04  1.2487860942061151e-03  2.0061920408585659e-02  2.0593213926363454e-02  8.3605647842681201e-04  1.8966074465230597e-02  3.5464215751248528e-03  3.3506939072271615e-03  1.8160078834811737e-02  2.4286858350338413e-02  4.3129415802158495e-04  3.0331627668306249e-03  3.5709422669945811e-03  1.6457418175797153e-02  4.5792504074944687e-03  4.1825985013566125e-03  1.7409216935388213e-03  1.5980157804390271e-02  2.0449145777297922e-02  4.8759201486928416e-03  2.6452508530813902e-04  4.3878796590091943e-03  2.4179668826831775e-02  2.3968221118268032e-02  2.3765882883100189e-02  2.3398889754717711e-02  2.3077847931672588e-02  2.2562022660256861e-02  2.2077310918585370e-02  2.1423041500914008e-02  2.0751773306469275e-02  2.1362219960405628e-02  2.1786620339425449e-02  1.9849205526906118e-02  2.0309292102138284e-02  1.9759275663375101e-02  1.8705628196584646e-02  1.8956862305235030e-02  1.7284996030296939e-02  1.6942466079908784e-02  1.7357419936476631e-02  1.8935089778980164e-02  1.7132598740643556e-02  1.8635729648558499e-02  1.6655350192876589e-02  1.8079112719196069e-02  1.5973140763088565e-02  1.7320850064932846e-02  1.5448704763802881e-02  1.5010276762788136e-02  1.5095948455980859e-02  1.6327642642529967e-02  1.5073709567553306e-02  1.3431732721618666e-02  1.2920433932631713e-02  1.4013129354691426e-02  1.5106577769845073e-02  1.1306797913642924e-02  1.0754582065081600e-02  1.2104859171733286e-02  1.7299110803108440e-02  1.5936105595138958e-02  1.3718869924219012e-02  1.4391343215184144e-02  1.2182839536571151e-02  9.8633450471083111e-03  1.0922371269755708e-02  1.6435536322172841e-02  1.4720935940105427e-02  1.1560352097418021e-02  1.9312405224803361e-02  1.6554207167431122e-02  1.4654655963047899e-02  1.2653968858415644e-02  8.5817146623633368e-03  1.7506162655185208e-03  7.6783233344051276e-03  6.9257028314315106e-04  2.2569155025157014e-04  7.0549409056427557e-04  8.9673848490519803e-04  1.8113688958942380e-02  1.6361065536182082e-02  1.5133221541110143e-02  1.5416159573459732e-02  1.3889433050923014e-02  1.3615773105545445e-02  1.4039413931610793e-02  2.3497423464496552e-02  9.4332606403715602e-03  1.2822115113936220e-02  1.1521241401513204e-02  2.2753723526914489e-03  1.2531283822467782e-02  9.3880193023810586e-03  1.6276319838550511e-02  1.5660906143891096e-02  1.4099887384863409e-02  6.4957201287878822e-03  1.0709588365940447e-02  2.0290241605435820e-02  1.2148069676188662e-02  1.2183420327803883e-02  1.3613211124871320e-02  1.1827344061317347e-02  9.4095672746047510e-03  9.9252645025709602e-03  1.2340354481709061e-02  1.0240532467608318e-02  1.2645025734597245e-02  1.0380489855159875e-02  1.2751138063911111e-02  1.0254363828610669e-02  1.2588120365602340e-02  9.9800217310083948e-03  1.2190575504927919e-02  1.4735728859157950e-02  1.4217253038442032e-02  1.1679071133877268e-02  1.3519277049310892e-02  1.5946852488994554e-02  1.5106741344535334e-02  1.2654607644641913e-02  1.4033741112290891e-02  1.1625849746188530e-02  1.2708504526178329e-02  1.5040628832443698e-02  1.0490901471333259e-02  1.3459306073616777e-02  2.0875750155042658e-02  1.5626382471994642e-02  1.7486117534320379e-02  1.3826400555844021e-02  1.5804541234015854e-02  1.3777785391517987e-02  1.5584798432159730e-02  1.1846373247418322e-02  1.0194585117436284e-02  1.7801854942231476e-02  1.3326427269788393e-02  1.5320746893837131e-02  1.0038459501272584e-02  8.8863963572033897e-03  7.7869866391626118e-03  3.0767835017212776e-04  5.6094931062187874e-03  4.5915203120652582e-03  1.4971819611912711e-02  2.0298859791959275e-02  2.0042991931357904e-02  1.9370575791961671e-02  2.0589643887270543e-02  5.1158594372442082e-03  7.3013643466164711e-03  1.3207371249161435e-02  1.1375117347567477e-02  1.2685697159851296e-02  2.3533483618681343e-02  6.9962751562138211e-03  1.1125528759702274e-02  9.0923337720733143e-03  9.9730337127738999e-03  1.1090968828667953e-02  1.0255992227662138e-02  1.2577387594460416e-02  1.4119687836063165e-02  1.1973756403531809e-02  8.3427478911693893e-03  7.5969644316881153e-03  7.2416079661298365e-03  9.4432848130914203e-03  2.0625932853460386e-03  9.2355786357712147e-03  1.2218324102340790e-02  1.0487117660907975e-02  1.2438680514332404e-02  1.5743730190285018e-02  1.9502404032426961e-02  6.6902614805642684e-03  8.5150210447604829e-03  8.7820277937973885e-03  6.4858227402630328e-03  3.7741406631791245e-03  4.3783674739071412e-03  3.0203399692810993e-03  2.1548048682041389e-02  6.6877746927435098e-03  6.8262903025935549e-03  1.2212446403368977e-02  1.7376217837075981e-02  1.8150847324364658e-02  1.9379781176910253e-02  2.0026395720927476e-02  2.1064977766209150e-02  2.1565940373386591e-02  2.0463051402457414e-02  2.2403795349948061e-02  2.1796525405210869e-02  2.2867713449672637e-02  2.2189430001777179e-02  2.0976557760197662e-02  2.1388445315897581e-02  1.1417933564401111e-02  1.2923032914801466e-02  9.7526980041541117e-03  6.0967519921056824e-04  7.4559652855104544e-04  2.0073501321970305e-02  1.6373740385614597e-02  1.5392987162410878e-02  1.4148705254891317e-02  1.1638484415936779e-02  1.2836503139096914e-02  1.5207930933521203e-02  1.3848936832132777e-02  1.6427056013754892e-02  1.4721524582548277e-02  1.6864384818694237e-02  1.5237373969143486e-02  1.3028575261559995e-02  1.3489282685319600e-02  1.5557699995993220e-02  1.3708152618747188e-02  1.5569938318011395e-02  1.3607376778115040e-02  1.5243272598460839e-02  1.3146021075622582e-02  1.1517289937446690e-02  1.4562757037296453e-02  1.2316133117795610e-02  1.1128473095808934e-02  1.3500843649345638e-02  1.1122146212557856e-02  1.0103045987566646e-02  1.7652424409621541e-02  1.6626564272115878e-02  1.1171990662919164e-02  2.1246727208931428e-02  8.6690162425146818e-03  4.8715296370351636e-03  5.1569538875502500e-03  5.0069180723652752e-03  1.2128962662384715e-02  1.4711710462120950e-02  9.4677518434185277e-03  1.1357807174918896e-02  9.8543751309688558e-03  5.5598805130540928e-03  2.0082106037088768e-02  1.8242107177631008e-02  1.8563439037818336e-02  2.3018056001758415e-02  2.2753479665724472e-02  5.3240423163107937e-03  3.0676505128411796e-03  2.0455605467583585e-02  2.3402885532298673e-04  8.8521268524642573e-03  7.4638591358635095e-03  6.2858194631470578e-03  5.0630354005785751e-03  1.4399657164401477e-02  1.8794559822792257e-02  1.0463477725959529e-02  8.4579481192912052e-03  9.1513523419666804e-03  5.0430032476022789e-03  5.0191397220930604e-03  3.5537801724736693e-03  3.2403045509087560e-03  3.4964046624101240e-03  2.6543444839915685e-03  2.9352200303426118e-03  4.8591836283721620e-03  4.5751194697611543e-03  6.8656311821721720e-03  4.1791920666983152e-03  6.3286645100046422e-03  3.7278969992642808e-03  5.7586932597309725e-03  1.7098013886109424e-02  1.7159007341376771e-02  1.5657132447164317e-02  1.8424151228476283e-02  1.8316145285628527e-02  1.9604474836578515e-02  1.9393916182583629e-02  2.0586115728945167e-02  2.0320228811154372e-02  2.1458009022503093e-02  2.1042056579311682e-02  2.2170807641839888e-02  2.1713370044664247e-02  2.2743527973921610e-02  2.2128904867329564e-02  2.3211387196946886e-02  2.2337303813163952e-02  2.3202280477817912e-02  2.2245857792380010e-02  2.3117424974958879e-02  2.1102905659737371e-02  2.3795232257662311e-02  2.3680549193105357e-02  2.2881105329913106e-02  2.3465351356920561e-02  8.5517820180203274e-03  5.3637790266569891e-03  1.1106318744179684e-02  7.8309413469627026e-03  2.2985070589095168e-02  1.9730708140370951e-02  1.0022535115605555e-02  1.0055265974250787e-02  3.5825395304634241e-03  1.4463916960760253e-02  1.9133147106982204e-02  6.8285967742143074e-03  7.3738405070980229e-03  1.8588150418704260e-02  1.9507548786492974e-02  1.0496948643660660e-02  1.2102725009469059e-02  2.0564348188683135e-02  1.7333723414729469e-03  9.8173178074739947e-03  4.5539088299483615e-03  1.4699741412422902e-03  2.3820188283061042e-02  1.7216187846091375e-03  1.9506369495901864e-02  6.5642490342825493e-03  7.2821388066392516e-03  9.5351187044009442e-03  7.5823742372063208e-03  5.0703644117256232e-03  2.3549004405104910e-02  6.6331259510226410e-03  2.2262194526051066e-02  2.0471315724222866e-02  2.4262998470458295e-02  1.8126880765190437e-02  3.6511060190179204e-03  1.9934461178522018e-03  2.4230309729242928e-02  2.9107426969565936e-03  5.0849788878248123e-03  2.7492721634922797e-03  2.2601992479391916e-02  2.4288698274946553e-02  2.3961448886559465e-02  1.9254617709448720e-02  1.8222270363148666e-02  1.9863336658973711e-02  3.7868935732634557e-03  4.9244703896656134e-03  2.7551820235021110e-03  3.8459018909697000e-03  1.8880187717116186e-02  3.2841658350885048e-03  5.1187861622562338e-03  2.7675256991102522e-03  4.3567405200349981e-03  6.5895807136727548e-03  5.5824354041902223e-03  3.5478830203957059e-03  4.3870204515105331e-03  6.4063764398852715e-03  2.6420419868124182e-03  4.8360464039301828e-03  6.7516750362143062e-03  4.7122656628639653e-03  6.5282997906683992e-03  8.4807897038466900e-03  2.3419225994543727e-02  1.7332130666234433e-02  1.7167139002739046e-02  1.7908933724150485e-02  1.6155638131559704e-02  1.8072118891765323e-02  1.7444848550985496e-02  1.8811730758918808e-02  1.8423128357023075e-02  1.7732609126259652e-02  1.8903476499609450e-02  1.9555026420691617e-02  2.1990060733796186e-02  8.4125734745167068e-03  6.6188207393741401e-03  7.9308278622785781e-03  7.3173453795149423e-03  4.7111685853599592e-03  1.7490372876105605e-02  2.3416437384760808e-02  5.8147370824065557e-04  3.1857265298856742e-03  1.6027738588138756e-02  4.0324356711737780e-03  6.6821526205641186e-03  5.6140686990395717e-03  2.9168366785816157e-03  4.6401997065152493e-03  6.9424624458307542e-03  5.3842122076437115e-03  3.4909538260158787e-03  1.6635694353471170e-03  7.8761828959889764e-03  1.8219835989759594e-02  1.9249870507298716e-02  1.8423752453992678e-02  1.6379988854634923e-02  4.1754284041426344e-03  1.8906499532985472e-02  1.2210850283287758e-02  1.3889200259689408e-02  2.0463317237067243e-02  1.6632351612706993e-02  1.7394188003664286e-02  1.5079370801856413e-02  1.7146931310249931e-02  1.6851234416071063e-02  1.8870040576303603e-02  1.8996673127913557e-02  1.8433505609376750e-02  1.6365829211430625e-02  1.7903544497570811e-02  2.0621931906601335e-02  1.5769024109222672e-02  2.3903079662174701e-02  1.9929705888215757e-02  2.1616430313113919e-02  8.0255165805158282e-04  2.4501038252058493e-03  2.0199374580645912e-02  1.1499084187589733e-02  1.3641002101173617e-02  1.6564676304923968e-03  7.7538022736471845e-03  7.9562555941989582e-04  8.8348626835995584e-04  8.7711598015799593e-03  8.4377375801957255e-03  4.0471778542766346e-03  3.6841186725876584e-03  5.6565371695330852e-03  1.7241225106400804e-02  2.0559548641071249e-02  2.0379326986131992e-02  1.9879706750274357e-02  1.9957619983265281e-02  1.9057664326277046e-02  2.6413890956601331e-03  4.3638062962964999e-03  3.0467661086820736e-03  1.3643662964551592e-02  4.3332165887539371e-03  7.8958571640082072e-03  7.2932804042431477e-03  2.3995069135909846e-03  2.0366015957372585e-02  7.2902755711984416e-03  1.7398350055145548e-02  2.1860508476172762e-02  4.8360717908643843e-04  8.3007038741865339e-04  8.8230313046033836e-04  7.7811645428278340e-03  2.1495386259846684e-02  1.2713317846178066e-03  1.6798077187127468e-02  6.4441457471087153e-03  5.0870907761728958e-03  1.4864546570691967e-02  5.8803955127542640e-04  1.2517144396649081e-02  6.2498977366831241e-03  1.1883121792228485e-03  4.0315949910318683e-04  1.8644920474724053e-03  1.2171834695184935e-03  7.0433941828929980e-04  1.8866382865754851e-02  1.6659949062643634e-02  9.0276151558866275e-03  2.3491499686801295e-02  1.4209566660296670e-02  2.6779002105046818e-04  1.2116678000760846e-03  4.4335375056512557e-03  1.9535335726353114e-02  9.5461054768092943e-03  1.8770424818222758e-02  2.5561420629678183e-04  2.9098936433501763e-03  2.2905346706845425e-03  2.7436461845304844e-03  5.5286972610649335e-03  7.5270514693266876e-03  5.3608028083698667e-04  1.4284069334542668e-02  7.0768934879484142e-03  2.2913596980118259e-02  2.1127656994063292e-02  1.4658790068293652e-02  5.4323638567417174e-03  1.0350145963706345e-02  3.4347028861417572e-03  2.2959535977290606e-02  1.1592514276087262e-02  8.6535798537606401e-03  2.0352618272234765e-02  3.2984445435947007e-03  4.5029085909617439e-03  7.8850857175554543e-03  7.3862494430963106e-03  1.3676355529763541e-02  1.1428892915278918e-02  1.8459583075597141e-02  9.1622362306627569e-03  1.4467410743002132e-02  7.2426483441695409e-03  7.7563833991759982e-03  2.0179987664663283e-02  1.9131020934383621e-02  1.2745842344884418e-02  2.4043188559348137e-02  2.3842179751459049e-02  2.3192258568927114e-02  1.8262483826767752e-03  1.4638125092368459e-03  3.0564831713549559e-03  1.2755540910254609e-02  8.5169202263485637e-04  5.4566025864110853e-04  5.3315292471152265e-03  8.8243833820310803e-04  1.7040357488738340e-04  1.2257220196392013e-02  2.5576284561486126e-04  2.3548758346492806e-02  4.1963666906062978e-03  1.0663416462069674e-02  2.3895391073229005e-02  