<?xml version="1.0"?>
<VTKFile type="UnstructuredGrid"  version="0.1"  >
<UnstructuredGrid>
<Piece  NumberOfPoints="1277" NumberOfCells="2456">
<Points>
<DataArray  type="Float64"  NumberOfComponents="3"  format="ascii">0 0 0  0 1 0  1 1 0  1 0 0  1.1 -0.1 0  -0.1 -0.1 0  1.1 1.1 0  -0.1 1.1 0  0.5069819826694987 0.5048277825167509 0  0.6261358217683002 0.7344922973196111 0  0 0.9499999999997918 0  0 0.8999999999995836 0  0 0.8499999999996529 0  0 0.7999999999999998 0  0 0.7500000000003466 0  0 0.7000000000006934 0  0 0.6500000000010401 0  0 0.6000000000013869 0  0 0.5500000000017335 0  0 0.5000000000020587 0  0 0.4500000000018723 0  0 0.4000000000016644 0  0 0.3500000000014564 0  0 0.3000000000012483 0  0 0.2500000000010403 0  0 0.2000000000008322 0  0 0.1500000000006241 0  0 0.100000000000416 0  0 0.05000000000020799 0  0.04999999999989965 0 0  0.09999999999981467 0 0  0.1499999999997036 0 0  0.1999999999995579 0 0  0.2499999999994121 0 0  0.2999999999992664 0 0  0.3499999999991206 0 0  0.3999999999989749 0 0  0.4499999999988292 0 0  0.4999999999986943 0 0  0.5499999999988151 0 0  0.5999999999989468 0 0  0.6499999999990784 0 0  0.69999999999921 0 0  0.7499999999993417 0 0  0.7999999999994734 0 0  0.8499999999996051 0 0  0.8999999999997368 0 0  0.9499999999998684 0 0  1 0.04999999999989965 0  1 0.09999999999981467 0  1 0.1499999999997036 0  1 0.1999999999995579 0  1 0.2499999999994121 0  1 0.2999999999992664 0  1 0.3499999999991206 0  1 0.3999999999989749 0  1 0.4499999999988292 0  1 0.4999999999986943 0  1 0.5499999999988151 0  1 0.5999999999989468 0  1 0.6499999999990784 0  1 0.69999999999921 0  1 0.7499999999993417 0  1 0.7999999999994734 0  1 0.8499999999996051 0  1 0.8999999999997368 0  1 0.9499999999998684 0  0.9499999999997918 1 0  0.8999999999995836 1 0  0.8499999999996529 1 0  0.7999999999999998 1 0  0.7500000000003466 1 0  0.7000000000006934 1 0  0.6500000000010401 1 0  0.6000000000013869 1 0  0.5500000000017335 1 0  0.5000000000020587 1 0  0.4500000000018723 1 0  0.4000000000016644 1 0  0.3500000000014564 1 0  0.3000000000012483 1 0  0.2500000000010403 1 0  0.2000000000008322 1 0  0.1500000000006241 1 0  0.100000000000416 1 0  0.05000000000020799 1 0  -0.1 1.05000000000004 0  -0.1 1.000000000000079 0  -0.1 0.9500000000001624 0  -0.1 0.9000000000003032 0  -0.1 0.850000000000444 0  -0.1 0.8000000000005848 0  -0.1 0.7500000000007256 0  -0.1 0.7000000000008665 0  -0.1 0.6500000000010508 0  -0.1 0.6000000000012352 0  -0.1 0.5500000000014196 0  -0.1 0.500000000001539 0  -0.1 0.4500000000014195 0  -0.1 0.4000000000013 0  -0.1 0.3500000000011588 0  -0.1 0.3000000000010178 0  -0.1 0.2500000000008986 0  -0.1 0.2000000000007579 0  -0.1 0.1500000000006174 0  -0.1 0.1000000000005272 0  -0.1 0.05000000000040083 0  -0.1 2.671196597248127e-13 0  -0.1 -0.0499999999998666 0  -0.0500000000000906 -0.1 0  -1.730560139634463e-13 -0.1 0  0.04999999999975802 -0.1 0  0.09999999999961506 -0.1 0  0.1499999999994613 -0.1 0  0.199999999999302 -0.1 0  0.2499999999991446 -0.1 0  0.2999999999990088 -0.1 0  0.3499999999988296 -0.1 0  0.3999999999986936 -0.1 0  0.4499999999985143 -0.1 0  0.4999999999984002 -0.1 0  0.5499999999985247 -0.1 0  0.5999999999986493 -0.1 0  0.6499999999987955 -0.1 0  0.6999999999989417 -0.1 0  0.7499999999990659 -0.1 0  0.7999999999992116 -0.1 0  0.8499999999993573 -0.1 0  0.8999999999994526 -0.1 0  0.949999999999584 -0.1 0  0.9999999999997226 -0.1 0  1.049999999999861 -0.1 0  1.1 -0.0500000000000906 0  1.1 -1.730560139634463e-13 0  1.1 0.04999999999975802 0  1.1 0.09999999999961506 0  1.1 0.1499999999994613 0  1.1 0.199999999999302 0  1.1 0.2499999999991446 0  1.1 0.2999999999990088 0  1.1 0.3499999999988296 0  1.1 0.3999999999986936 0  1.1 0.4499999999985143 0  1.1 0.4999999999984002 0  1.1 0.5499999999985247 0  1.1 0.5999999999986493 0  1.1 0.6499999999987955 0  1.1 0.6999999999989417 0  1.1 0.7499999999990659 0  1.1 0.7999999999992116 0  1.1 0.8499999999993573 0  1.1 0.8999999999994526 0  1.1 0.949999999999584 0  1.1 0.9999999999997226 0  1.1 1.049999999999861 0  1.05000000000004 1.1 0  1.000000000000079 1.1 0  0.9500000000001624 1.1 0  0.9000000000003032 1.1 0  0.850000000000444 1.1 0  0.8000000000005848 1.1 0  0.7500000000007256 1.1 0  0.7000000000008665 1.1 0  0.6500000000010508 1.1 0  0.6000000000012352 1.1 0  0.5500000000014196 1.1 0  0.500000000001539 1.1 0  0.4500000000014195 1.1 0  0.4000000000013 1.1 0  0.3500000000011588 1.1 0  0.3000000000010178 1.1 0  0.2500000000008986 1.1 0  0.2000000000007579 1.1 0  0.1500000000006174 1.1 0  0.1000000000005272 1.1 0  0.05000000000040083 1.1 0  2.671196597248127e-13 1.1 0  -0.0499999999998666 1.1 0  0.6515502438707358 0.7287214558344183 0  0.6760996237659596 0.7198447990335451 0  0.6991835958643222 0.7075665338477035 0  0.7203228902188141 0.6921717986368089 0  0.7392054736260615 0.6740796761142632 0  0.7538548365065455 0.652503794863872 0  0.7638884163655415 0.6285435071708357 0  0.7719724940931674 0.6039332264816074 0  0.7776602623545622 0.5787091575575022 0  0.780984364881085 0.5531249534115283 0  0.7823482469104514 0.5274143155481349 0  0.7819295296391665 0.5017139557832488 0  0.7796248869373922 0.4761438936990907 0  0.7754728709726534 0.4508345347181999 0  0.7695747069567576 0.4258914600065185 0  0.7617633785541331 0.4014927580481398 0  0.7520595653587603 0.3777736521909652 0  0.7405784585062773 0.3548368876050818 0  0.7271626462545073 0.3329463267865927 0  0.71180157562443 0.3122946772160312 0  0.6942733494911943 0.2932772729391641 0  0.674797146151762 0.2761515847546344 0  0.6531357336370098 0.2617329848416104 0  0.6297011653811849 0.2503702912137482 0  0.6044448034902008 0.2440086936104886 0  0.5785744661605754 0.2412375614954201 0  0.5526118762061958 0.2413473962707793 0  0.526832215302607 0.2438158758342517 0  0.5014248687628028 0.2484470838408965 0  0.4763398120172511 0.2543569734595784 0  0.4516112452657097 0.2614115766429082 0  0.4272696207739243 0.2695555169279327 0  0.4034621636685433 0.2788726237761658 0  0.3803265119742336 0.2893764448713121 0  0.3578452848581587 0.3010642773397725 0  0.3360853597249346 0.3138261917423875 0  0.3150786131173549 0.3277323051956117 0  0.2949591446183805 0.3428615904615176 0  0.2757582396366884 0.3591371869288988 0  0.2573811693257874 0.3763761210618771 0  0.2399676363199116 0.3946529228179173 0  0.2234884020806251 0.4139044222966917 0  0.2079487588253855 0.4340842935063625 0  0.1934674345659949 0.455210817614913 0  0.1814211498479286 0.477978186688716 0  0.1725295363925082 0.5023352973443286 0  0.1711136945212024 0.52835527910974 0  0.1760701926256961 0.5540978411938297 0  0.1870595960063259 0.5776889729291746 0  0.2031286700455829 0.5980848129441358 0  0.2208372072479854 0.6168644956726536 0  0.2399087649856613 0.634097457607485 0  0.2598552388487368 0.6501289642200851 0  0.2805372204476796 0.6651095946212287 0  0.3021179600673223 0.6787507072530479 0  0.3245614567193647 0.6909227582866577 0  0.3478175171662382 0.7014815709779981 0  0.371602463304997 0.7108466951597134 0  0.3959081719741231 0.7190027989628609 0  0.4207145008277243 0.7257290123422255 0  0.4458752836370585 0.731183612516508 0  0.471305429732461 0.7355052999727916 0  0.496926349686177 0.7388065891470813 0  0.5227183032982478 0.7408328520400298 0  0.5486107416027545 0.7415304371456697 0  0.5745487146361612 0.7408738154269089 0  0.6004493819763064 0.7385827660151416 0  0.263384589727893 0.6241407306065269 0  0.2490801501815328 0.4196115707494673 0  0.7378275268655596 0.633124869379683 0  0.759747764264543 0.5385518050870332 0  0.6320309115716641 0.712111545055478 0  0.6112113699840108 0.2682361739317666 0  0.7026546784959883 0.3352557735106894 0  0.5186194194949035 0.2663552478950248 0  0.3017761555283582 0.3681216473244758 0  0.3578578711687229 0.325043136930804 0  0.4496222648114107 0.2900381750729353 0  0.324094696604988 0.6658463525454571 0  0.3901960417008848 0.6945889565083192 0  0.4626066732799616 0.7112483720331655 0  0.5365372896650171 0.720373673799237 0  0.7437372639919452 0.4193501157279512 0  0.2011005367255127 0.5562399540122918 0  0.2066381759557869 0.4780352532717306 0  0.6968053831069265 0.6828654409280236 0  0.4012282564683289 0.3039585701504871 0  0.7544247995587 0.467756708690316 0  0.5854981862764814 0.7191754893828313 0  0.7526360647337409 0.5845084449864768 0  0.7258248072243715 0.3754266569600646 0  0.6709267810740718 0.2996208710719946 0  0.5686993491230348 0.2601157426373385 0  0.2278939474014362 0.5933851029337691 0  0.1913034520491859 0.5148885290333449 0  0.4878689858499609 0.7155178512406276 0  0.4805096052669768 0.6911305378797071 0  0.4542023624479488 0.6867229668079375 0  0.4726813064148872 0.6662763556496388 0  0.4437859213736728 0.6615621594160371 0  0.4593424175274338 0.6437058546341835 0  0.4841917231064486 0.6398974007712358 0  0.4338094888119373 0.6353074234117948 0  0.4551216352795197 0.6097903967358052 0  0.4142839218386442 0.6055471929780518 0  0.5021289400570005 0.6044083363208886 0  0.541092127680722 0.6359454253563291 0  0.5471085291631835 0.5866490631765826 0  0.5806605059409025 0.6234329220785882 0  0.5909252162886722 0.5739637334227637 0  0.6231446311930454 0.6103264265831543 0  0.6342709345848033 0.5602380201304406 0  0.6681613344348124 0.5915377780821368 0  0.6792131800102655 0.5525508175422723 0  0.6459579925942986 0.5224241428882131 0  0.6843297380204179 0.519863375156158 0  0.6632136868961869 0.4866940474088087 0  0.6185322976256967 0.4943556156722289 0  0.6309035796410257 0.4556827367248258 0  0.6742934941133266 0.4437268776265946 0  0.6472026821527561 0.4130760217347676 0  0.603063563833514 0.4236232486127147 0  0.6165894248106879 0.385770914967257 0  0.5758335411038057 0.3924269176248981 0  0.5929760676330835 0.3524963623458738 0  0.5479505894396441 0.3552232635980946 0  0.5348139516058278 0.39748705397932 0  0.5055543133280211 0.3596026111436693 0  0.4914698982520978 0.4044932380454389 0  0.4615415289001993 0.3669721019595905 0  0.4471848867844992 0.4106006608655595 0  0.654745485759752 0
[...]
<PointData  Scalars="v"> 
<DataArray  type="Float64"  Name="v"  format="ascii">5.9270278194455555e-20  1.2766728076334525e-19  6.0286634698395379e-20  2.6155089680003854e-21  -1.0094150904182039e-21  -3.4798928280555812e-21  -3.5460669525480584e-22  -7.5757201862418200e-21  -1.0078500024824780e-04  -1.2072073387872466e-04  -7.5330425674112891e-20  6.0739409504880978e-19  7.3450987004207894e-19  -3.7369618616690915e-19  1.8477767351358438e-18  1.5669736540451671e-18  -8.7443069138137523e-19  4.2967867008883720e-19  -1.6140334844769820e-19  9.9202157212979924e-20  1.4865903315185873e-18  5.4835103496214405e-19  -5.0686145987748819e-19  9.1745295281182146e-19  -1.3536994461318308e-18  2.7439892797255668e-19  6.3292913737113786e-19  6.5238673415689054e-19  -2.6561185717718014e-19  3.9513159347945803e-19  3.8098752350624390e-19  2.4645123351339734e-19  -2.0514439904250535e-19  6.0856918092302532e-19  -1.6159084536992937e-19  -2.3808420180111813e-18  -2.2562450941314715e-18  1.0688284229222633e-18  1.2600129450538560e-18  1.1092544586250217e-18  -6.7592605178669487e-20  7.3184203282703297e-19  8.8526356600438630e-19  5.7493499523779008e-19  6.9841018325506302e-19  1.5735319401231761e-19  3.6456798950406741e-19  -1.6031671202082290e-19  1.6490611101551756e-20  -1.4356529453104082e-19  4.6000469525766015e-19  3.4376912051221987e-18  -4.2860344028174420e-18  -4.2584942781442892e-20  1.1413965545648990e-18  3.7127080809493055e-19  -6.9875605590438734e-18  5.7654904286124248e-19  8.7051862619133341e-18  1.0644093552209854e-18  -2.1437757504488753e-18  -6.6872082714903136e-19  6.5399728207143770e-19  -3.4244324146639581e-18  -1.3675284123526724e-19  -1.0073188413525614e-19  8.9027667414805801e-19  -9.6980549695648478e-21  1.7564894999425337e-18  2.9123473318393535e-19  -3.1193530695683359e-18  2.1523021674812474e-19  3.9244667246045809e-19  2.3716451320001295e-20  6.5351509550344844e-18  -5.5015337854077063e-18  -6.3654370750333182e-18  5.0213364270171300e-18  -6.0845739727358279e-19  -5.6065582518208326e-18  -5.2006331696562396e-18  3.1585866990621649e-18  -2.5055515481138365e-19  2.5500549336597340e-19  -8.0719404362372212e-19  -6.7589835784347673e-19  6.4322707703895693e-21  3.7893055130137956e-21  8.2473972981502913e-21  8.4310744433072888e-20  5.9023969591679469e-20  2.6702807027551823e-20  2.0110153518671514e-19  7.8557383214749285e-20  -2.6055659022657403e-20  -1.9453487111409793e-20  3.4384350813300186e-20  5.0874197906270659e-20  1.9233589208683833e-19  4.0663994548856598e-20  6.7919096187736473e-20  8.8275582053412511e-20  -1.3615979751887440e-19  -4.5824434492250003e-20  1.1120622223020590e-19  7.6581194111413951e-20  -1.4542896362925993e-21  -1.3146676547964697e-20  9.1101889993611382e-21  -1.9599104022312697e-21  8.4892705927159071e-21  4.6922452881454455e-20  5.9738657515987406e-20  2.0854790914671703e-20  -1.5704612495302391e-20  6.5351274593576494e-20  -8.4956436892849721e-20  -3.4608613385868862e-19  -2.8124379553843420e-19  9.7281485895598804e-20  2.1191913624304778e-19  8.2081974074245546e-20  4.0936102357524244e-20  8.9156789211267610e-20  7.6101329130672457e-20  8.3962802117846162e-20  8.3271441388005804e-20  4.6001007068747167e-20  2.7034127096813913e-20  -7.1313155682376021e-22  -1.1006008756540558e-20  4.1545840228910474e-21  -1.0258496861939315e-21  2.9344092729068181e-21  -3.4960803545542155e-21  1.5457009492708591e-20  7.7880279419624379e-20  5.9844757295167841e-20  -5.8316750537191243e-20  -1.5188808173313864e-20  5.6080947595629397e-20  6.8040122023905056e-20  3.0096099889302537e-20  -2.7042969507759162e-20  2.0680858596533599e-20  8.8898583995539632e-20  -9.0600580948706081e-20  -1.3812289467955073e-20  9.0583687215282102e-20  6.1838917976501874e-20  -1.4660557094583862e-20  -1.8441382562327925e-20  -3.1641323895154396e-21  7.2594136511444685e-23  1.7020744007349698e-22  1.0477572605281447e-21  -3.6888762356319350e-21  4.5593151079057774e-21  3.3479415028478183e-20  4.4607946591407782e-20  3.0324814822899931e-20  3.4109753080701471e-20  4.5106631902553813e-20  2.6243586464566757e-20  8.3626396759260291e-21  1.3503375986230473e-20  -1.5434555130965439e-20  -5.0909295741456271e-20  4.3339504822394715e-20  2.6386303316590668e-20  -6.0095688469510253e-20  -3.2651532034335842e-20  1.2692047416175878e-20  4.1993418896800706e-20  3.5747217725378997e-20  1.5402758274423842e-21  5.6527782354528364e-21  6.3069927967187076e-21  -1.0639567725334587e-04  -8.6812066844760001e-05  -6.2121693945317385e-05  -3.7125843796171276e-05  -1.0320899601132668e-05  1.8016928119022031e-05  4.5804460093404433e-05  7.1029626424915101e-05  8.6372489980135979e-05  1.0348694345010603e-04  1.1267990132004789e-04  1.2155966586104326e-04  1.2147090573502183e-04  1.1492592971037253e-04  1.0437845025002248e-04  8.6813907527050508e-05  6.2816692871739098e-05  3.3123264972052181e-05  -3.7122727736023554e-06  -4.7317948015234912e-05  -8.8090854844174863e-05  -1.2509361244525719e-04  -1.5475393085710509e-04  -1.7590394017023717e-04  -1.9111554578489552e-04  -1.9813638209279676e-04  -1.9707578737060584e-04  -1.8778914828034156e-04  -1.7080659546214299e-04  -1.4740203412153642e-04  -1.1442301339768431e-04  -7.6955831659264456e-05  -3.7159517280994698e-05  9.1394750764825294e-06  4.7692500252900482e-05  8.3726757191395363e-05  1.0865102551647615e-04  1.2470024669819350e-04  1.3151501466792228e-04  1.2883866884908499e-04  1.1808853229215043e-04  9.8104545904477175e-05  6.9040612863379610e-05  4.3967169275215109e-05  2.3472409797049760e-05  6.6954119460709706e-06  -4.0010992623835261e-06  -1.0234067295267610e-05  -1.2255874601249581e-05  -6.5127648679091004e-06  7.6124704153277692e-07  1.1758155222051356e-05  1.9797289313631419e-05  2.1398812425887589e-05  1.5108477222475800e-05  2.4530798842330236e-06  -1.4761665445313939e-05  -3.5475437204648022e-05  -5.8001167958312584e-05  -7.8486612804288332e-05  -9.7594184101056503e-05  -1.1361903848481203e-04  -1.2621996042763202e-04  -1.3530027118224401e-04  -1.3886221731015122e-04  -1.3919583560469329e-04  -1.3202536137474534e-04  -1.1455497153018068e-06  7.8101945141484285e-05  1.1464279855310535e-05  8.1820627197895697e-05  -1.4004215968477785e-04  -2.2570067874463532e-04  -5.0919632940547235e-05  -2.2483568518507334e-04  9.0269594443031365e-05  3.3902720409723563e-05  -1.2583873447423509e-04  -1.3605219333690202e-05  -5.7426654138092890e-05  -1.2362868951595473e-04  -1.6624544942253549e-04  6.1410247937882868e-05  -3.2078508908194177e-05  1.0060128109791330e-05  -6.6645278140661825e-05  -3.5085873221298886e-05  8.6469667120754040e-05  -1.6506792677679639e-04  5.4578286557607407e-05  1.2388223546503290e-05  -1.3595517741963434e-04  -2.4230044483658793e-04  -1.1278932267054244e-05  -2.3935361626525800e-05  -1.4321744730997095e-04  -1.2305872808522628e-04  -1.0659241598847565e-04  -1.1713245231000567e-04  -9.7718951193330496e-05  -1.0630094446791668e-04  -1.1962261482909713e-04  -8.8108159018773874e-05  -9.7926778605791559e-05  -7.1640757498763461e-05  -1.1552219451223586e-04  -1.3114286281753557e-04  -1.1147636891705239e-04  -1.1590134191024179e-04  -8.9813022399400547e-05  -8.3623821899651780e-05  -5.1698112043039836e-05  -3.2726646403212130e-05  -2.6202014063871145e-06  -3.0565392594874243e-05  1.2221607905352178e-05  -1.1813807662454076e-05  -5.6979058671964095e-05  -5.5178938946456447e-05  -1.0322931755770371e-05  -6.1299145799580509e-05  -9.7716859891556002e-05  -1.1305148602142182e-04  -1.3569104327942338e-04  -1.6573066735662954e-04  -1.7383658326218992e-04  -1.3891815260531659e-04  -1.5375555068377153e-04  -1.1948921638290619e-04  -1.0942300839286453e-04  -8.1269500684668581e-05  -6.7755369543918501e-05  -5.3187460795708466e-05  -3.5814135497950004e-05  -1.9558053978187864e-04  -5.7974632395381529e-05  -4.3859912525005823e-05  -5.4062782281043957e-05  -3.2772776083522117e-05  -3.7699296538301584e-05  -1.6912064687117472e-05  -1.6323093409458309e-05  -2.9344005366259155e-06  3.9179676182458052e-06  1.2727828017736896e-05  2.7051117020183981e-05  -2.7261766299208198e-06  -6.3605171984888487e-05  1.0643209002681303e-05  4.0561159731681075e-05  -6.2746677468670896e-05  -1.3146026088867218e-04  1.4492475656665523e-05  2.2427415262482609e-06  -6.3656754156525637e-06  4.6842576446400345e-06  -1.4468995924106687e-05  -1.3414732049921223e-04  -1.4498820338103470e-04  -1.3431427095161985e-04  7.2572411112646075e-06  1.2559095080762058e-05  -9.0462569488768401e-05  -1.8343237427350665e-05  4.8778211225084887e-05  3.9919565572741210e-05  -8.7111032151479694e-05  -2.9902063978122126e-05  -4.0927501558241360e-05  -1.1618457124058551e-04  -1.2689621355629180e-04  5.6113826188948164e-05  6.9159760825562917e-05  3.2491540773208722e-05  2.3733345163611944e-05  -9.8262460705810837e-05  -8.6110730709163980e-05  -3.0969703765070242e-05  -1.0209441652211040e-04  -1.3852366265540322e-04  -1.8588157985526002e-04  -2.0190072226476823e-04  -2.0215179627571588e-04  -1.8208429929281842e-04  -1.6906338822576640e-04  -2.1907951843543168e-05  1.4056508739903835e-05  -5.1981168592607196e-05  -8.3504783723230036e-05  -1.1932036473853406e-04  -1.9564725584533267e-05  -2.1835409511062312e-05  -1.2603750933328377e-05  -1.0725981582461422e-05  -5.7014657874393831e-06  -4.3945287282130322e-06  2.7211597643347277e-05  5.7989915466610948e-05  6.0920771603797105e-05  1.6097772549906468e-05  3.3439759311874203e-05  -1.3866192913682184e-04  -1.4249586268467933e-04  -1.1568212628463510e-04  3.8491581622279555e-05  3.7758813737710793e-05  4.5854833531674833e-05  -1.9928092948074736e-04  -7.9198167455516016e-05  -4.5664630921362696e-05  5.4951762541367387e-05  -9.3729108292538429e-06  -6.7252638616460497e-06  4.6425355914372386e-05  -9.7485174486484566e-05  7.7231624755248708e-05  9.1785356944410853e-05  -8.7233978873027391e-05  -1.6143349199348756e-05  -1.0530848196217824e-05  4.4003574076640865e-05  -1.0103845518487488e-04  -6.0594275253070390e-06  6.0076111333533767e-05  -1.6934179296993848e-04  -1.5173555760601017e-06  -4.0764002237830009e-05  -6.9539414875803104e-05  -9.3624090677555806e-05  -1.0942978134784775e-04  -1.2408473729838340e-04  2.3506490788903031e-06  -9.3116185361946120e-06  8.2591356348601745e-05  -7.9074520084828715e-05  -2.0166044825485019e-04  -6.1164342672378360e-05  -5.2220856340065805e-05  -5.4171546256373411e-06  7.3036272934292378e-05  -2.5937833422861701e-05  -2.4765339271116054e-05  8.9071550230474371e-05  6.8955813757746578e-05  -1.6965350548624926e-04  9.1159682293601662e-05  -7.5854888563486850e-05  7.8511461124256842e-05  -9.2060130896844683e-05  3.6443145421832233e-05  -2.6575113695576276e-06  7.3268956621694813e-05  -1.5815814909311721e-04  7.0175688252676203e-05  -1.7504545163460955e-05  3.1314294628745878e-05  -1.6843748353972732e-04  -1.9594026870851957e-04  -2.3525112972677464e-04  -1.1009191481612335e-04  -7.0451906083819797e-05  -2.4218181266596198e-04  -1.5492442975439391e-04  -4.4249958045621279e-05  -1.3169483191802101e-04  -1.9616387471738727e-04  -4.9298893588540232e-06  -1.1528155658276560e-04  -9.7321764438163444e-05  -8.4818234579626421e-05  -8.5465985852715417e-05  -5.3144413735428917e-05  -3.1849952909733027e-05  -1.4226391611093934e-04  -1.8309812547014179e-04  6.5309949455267101e-05  -1.0185831336297209e-04  5.6321507909971742e-05  -2.3113367861355669e-04  -2.1714300156216321e-05  -1.0514526810896118e-04  -2.5806954185445480e-05  -2.1740362275948899e-04  1.3748621889972987e-07  -1.4430168765885384e-05  7.7167504956069446e-05  -9.4495229266253235e-05  -1.0469228301372759e-05  -6.8585254372063298e-05  -8.4191756594492699e-05  -4.6825297480568092e-05  -1.1822615249838872e-04  -3.2355805305088847e-05  5.0155550792045528e-05  -1.4709226712681281e-04  6.5745244955693724e-05  -1.2966966175025418e-04  6.2868473697074467e-05  -4.5158120688448259e-05  6.8723521359702737e-05  3.6782717037693850e-05  -7.7864741781733367e-05  -6.5924832550554865e-05  9.1984117718678818e-05  -7.6766582023989256e-05  -1.9293695426923522e-04  -1.9194881838422475e-04  1.9124546021113521e-05  -1.7244321634185197e-04  -5.3313081285196648e-06  7.2290201198108439e-06  -1.3552441470798894e-04  -1.4531366259913511e-04  -7.0344672903228533e-06  9.7180471880439818e-06  5.3270081227167546e-05  3.2725491836171145e-05  -7.6813291666257767e-05  -5.9947886236156080e-06  -2.0647464975097527e-04  -1.5811786034484478e-05  1.0534797618186013e-06  -1.3806258903023829e-04  -1.4152283590754538e-04  3.7427258566656493e-06  -1.1652368540615635e-04  -1.6135807414878697e-04  -1.6414346094074220e-04  -4.3373622075035336e-05  -9.1905810347347609e-05  -5.8234478790405826e-05  -2.4303648404896516e-04  -7.0365717350991005e-06  -3.1908544790956854e-05  -1.0155106659184142e-05  -1.3873132217269936e-04  -1.2824020463994036e-04  -1.4812723263853774e-05  -1.3895397674054113e-04  -8.9923213374864381e-05  2.7593273085086169e-05  -1.4728641341604302e-04  -7.1312846837830502e-05  -2.1138810352794802e-05  -2.0903425296125695e-05  -1.1089925106688581e-04  9.5455880434928441e-06  3.1011185555101122e-05  2.4944966144572887e-05  1.1242242493807106e-04  9.0492345053174212e-06  -6.0870606701913580e-05  -4.5247059460817288e-05  7.6791041115975666e-06  2.4361266842525770e-05  -2.7744694836309262e-05  -9.2452854942204612e-05  1.1829560769916764e-04  -8.1716106969154470e-05  4.1155487209061305e-05  5.5770601334640136e-06  -8.0341444388974602e-05  -1.2893177904590072e-04  -1.2679872330324555e-04  -4.5008994248938400e-06  2.0645497390214088e-06  1.5769977906546628e-05  5.5517142413527264e-05  2.7173634550144734e-06  2.6628298751304463e-05  -1.7219037253521786e-04  -1.8436808368833864e-04  1.0349523621837036e-04  4.6577858447452607e-06  1.0328277862763259e-04  5.1985821121692990e-06  -1.6351144142122295e-04  -1.5681175071160302e-05  -1.1895140223504923e-04  -2.6576245642608615e-06  6.0241841608935972e-05  -9.4885498471360038e-06  -1.6866246020683207e-05  1.1361833880610937e-04  -6.2323328336245475e-06  -2.2154642646479822e-05  1.6966604339808346e-05  2.6371331003079755e-05  1.3802735184908149e-05  -1.1066753679507000e-04  -1.8972010286830656e-05  -3.1569344557100003e-05  2.5349291507653527e-05  -3.5674243467027020e-05  2.5741781801320354e-05  2.1249070209023897e-05  1.6537354852961056e-07  -4.6362955032390689e-05  2.0323390718102920e-06  4.8037920388704329e-06  1.9010782534491503e-05  1.6136711227070720e-05  5.5445489871557971e-07  -3.4176936406739626e-06  4.1537305348115866e-07  4.1286861026946006e-06  1.5755037062235948e-05  -2.4084377628703889e-07  -3.9533328416137125e-07  1.2508798780272230e-05  2.0209697949241258e-05  1.0188604671418094e-05  1.7044361863950918e-05  2.8277899015211932e-05  8.6488170572166241e-06  1.4411303476887681e-05  3.4775123072037216e-06  3.5000531327722289e-06  8.8290862929307423e-08  -3.3820238302788007e-06  -1.5406432658225680e-04  -1.3465690537293963e-04  -1.1153210989573299e-04  -1.1600381837790656e-04  -9.4529775512697695e-05  -1.3413231354401291e-04  -9.6181554352974541e-05  -7.2247374237162691e-05  -7.4889864915297946e-05  -5.1877628756582415e-05  -4.2456045151142009e-05  -2.8060958506978895e-05  -1.4573304573745571e-05  -3.5580382745822606e-05  -6.6771592609020734e-06  9.1729618782953647e-06  1.0108026663145662e-05  -7.9322875092974718e-07  2.5398098547045781e-05  2.9835159574101523e-05  4.3386623367971846e-05  5.1836802858380035e-05  6.1391041833508929e-05  -9.4685575872263943e-05  -7.0561695829937578e-05  7.1739070578997086e-05  7.8361024771701946e-05  2.1567848181026287e-05  -8.6398949799722984e-05  5.9585023417883287e-05  -2.9368797937252806e-05  2.9445544680820016e-05  7.0691207965451600e-05  8.8600791746606128e-05  7.7452010844256187e-05  9.4586165563369552e-05  7.9916903612177242e-05  9.6290224290595402e-05  7.7877391945110617e-05  8.9470669990649734e-05  7.0163827799518696e-05  7.6165641985746437e-05  6.0465544636578768e-05  6.1441854137149623e-05  4.8124542591810785e-05  4.4063915831340325e-05  3.4381617962473763e-05  2.7495148361438979e-05  2.2270873441019396e-05  1.3025817309595168e-05  1.1445391268192428e-05  1.9181000317265430e-06  -2.3001556217902812e-06  -1.1975730474786910e-05  -5.5040778120812279e-06  -1.7268843436092918e-05  -2.8438838376911972e-05  -3.0055313549703345e-05  -4.4711059166314927e-05  -9.4611986624758908e-06  -4.1421749520338354e-05  -5.8853208662314234e-05  -2.7834435740967927e-05  -1.2591018102816318e-06  -4.3340813592702598e-06  -4.9872775411189555e-05  -6.9777567522170568e-05  -4.2712136301299851e-05  -7.8277950190665580e-05  -9.1210503927028906e-05  -7.5118268244316728e-05  -9.2392907253363940e-05  -7.2775686310015594e-05  -8.8446084976295084e-05  -1.0660700199394595e-04  -1.0307699576743822e-04  -8.0647476301456028e-05  -8.9794460800267614e-05  -6.8746435814874717e-05  -7.4470331230647277e-05  -9.2671277893205010e-05  -7.4005551241075065e-05  -5.7536877785291488e-05  -5.3792178947561646e-05  -4.0177971626679286e-05  -3.6552933820058320e-05  -4.8231567111318931e-05  -2.8755418756249774e-05  -2.0780938351473245e-05  -1.3100122360347135e-05  -1.8140053084664905e-05  -4.4339469331293385e-06  -1.6441597979685564e-06  4.7200064105838241e-06  3.4220306629786073e-06  9.9738084786695039e-06  9.8838529486900391e-06  1.2821769459585015e-05  1.2892596303492540e-05  1.2173470348904043e-05  1.3694726850844766e-05  1.2808104449827836e-05  1.2002320802445775e-05  9.8661134210813157e-06  1.1811895489566269e-05  1.2100385287206412e-05  9.2074079180362567e-06  1.0648405087511434e-05  3.3070150377289410e-05  8.4397969445730017e-06  5.4389801587254441e-06  -6.0079677780958174e-05  7.0122956883694328e-06  2.1256687976248689e-06  1.6540350575578972e-06  5.6202886977300996e-05  2.2224361296965882e-06  -4.9225947195914229e-05  1.2303627608173076e-05  -5.4142163019198974e-05  -1.0769488854767688e-05  -9.1072308331096425e-05  -9.5661708971795027e-05  1.5650271714156272e-05  -5.6365548440988484e-07  7.3380496041307671e-05  1.0283609834545197e-05  1.0179324393781668e-04  -5.7456898186630066e-05  -3.9467049233043572e-05  -8.5193680841596814e-05  -4.1614207327548062e-06  4.0195793825472957e-05  -1.1695492946745273e-04  -1.1836893427268503e-04  -1.0706199980711736e-04  -1.1133380253349967e-04  -9.5535883691514806e-05  -1.2791926674159335e-04  -9.7755537488506395e-05  -1.2424507604868229e-04  -1.5124684298090969e-04  -1.4528964433527518e-04  -1.1373564263487254e-04  -1.3562919972722953e-04  -9.7327519980989553e-05  -1.0804384617453229e-04  -1.3339131983643396e-04  -1.1174592315457188e-04  -7.9136478175303359e-05  -7.5137936574564304e-05  -9.6327845072207728e-05  -6.2749101590605955e-05  -4.2848528011770205e-05  -2.4302813917801021e-05  -3.4185430207840169e-05  3.1515047301494037e-07  6.1206485081513035e-06  3.2637743487803752e-05  3.0031808852955559e-05  5.3300340596443350e-05  5.7326090213723075e-05  7.6368619045120786e-05  6.5210792700311757e-05  8.2697764500138635e-05  9.5259009617559560e-05  9.4001164806259253e-05  1.0623742891153944e-04  9.7910712792428979e-05  7.9476846563457623e-05  1.0727158224816475e-04  9.3265234691573395e-05  9.8861137406683146e-05  1.1429703365091252e-04  8.1828110475054685e-05  -7.7261887513941822e-06  9.2880785896483065e-06  2.6792768546853637e-05  8.0932060301779199e-05  8.3058261004169236e-05  9.8187646015322048e-05  8.0869144088560488e-05  9.0444809188891691e-05  6.5297289793304867e-05  5.5417583068930724e-05  -4.0817092002893753e-05  -1.2305488203409887e-05  1.8108627100088454e-05  1.0344968176289060e-04  -1.6457048764276219e-06  1.0585700085739956e-05  -8.2289166962670033e-05  7.5322960458637381e-05  -1.0588310919305265e-04  -1.9585835530640477e-08  -1.6004509376808633e-04  -1.7096258329496063e-04  9.6157496797718382e-05  -1.0609541538444698e-04  4.3535541745611474e-05  9.9171491434329309e-05  8.6880348277566598e-05  8.2543568180745290e-05  4.6731003140204192e-05  -1.6608551805713141e-04  -1.2458461010376467e-04  -2.0883208943635637e-05  -1.7385414191249102e-06  -1.7226266104752902e-05  1.8170372252321802e-05  9.8832950017987291e-06  1.0448865017914619e-04  1.9890545265539220e-05  3.89702252