<?xml version="1.0"?>
<VTKFile type="UnstructuredGrid"  version="0.1"  >
<UnstructuredGrid>
<Piece  NumberOfPoints="1277" NumberOfCells="2456">
<Points>
<DataArray  type="Float64"  NumberOfComponents="3"  format="ascii">0 0 0  0 1 0  1 1 0  1 0 0  1.1 -0.1 0  -0.1 -0.1 0  1.1 1.1 0  -0.1 1.1 0  0.5069521439166963 0.5048565313574126 0  0.639564374514262 0.7185923043545401 0  0 0.9499999999997918 0  0 0.8999999999995836 0  0 0.8499999999996529 0  0 0.7999999999999998 0  0 0.7500000000003466 0  0 0.7000000000006934 0  0 0.6500000000010401 0  0 0.6000000000013869 0  0 0.5500000000017335 0  0 0.5000000000020587 0  0 0.4500000000018723 0  0 0.4000000000016644 0  0 0.3500000000014564 0  0 0.3000000000012483 0  0 0.2500000000010403 0  0 0.2000000000008322 0  0 0.1500000000006241 0  0 0.100000000000416 0  0 0.05000000000020799 0  0.04999999999989965 0 0  0.09999999999981467 0 0  0.1499999999997036 0 0  0.1999999999995579 0 0  0.2499999999994121 0 0  0.2999999999992664 0 0  0.3499999999991206 0 0  0.3999999999989749 0 0  0.4499999999988292 0 0  0.4999999999986943 0 0  0.5499999999988151 0 0  0.5999999999989468 0 0  0.6499999999990784 0 0  0.69999999999921 0 0  0.7499999999993417 0 0  0.7999999999994734 0 0  0.8499999999996051 0 0  0.8999999999997368 0 0  0.9499999999998684 0 0  1 0.04999999999989965 0  1 0.09999999999981467 0  1 0.1499999999997036 0  1 0.1999999999995579 0  1 0.2499999999994121 0  1 0.2999999999992664 0  1 0.3499999999991206 0  1 0.3999999999989749 0  1 0.4499999999988292 0  1 0.4999999999986943 0  1 0.5499999999988151 0  1 0.5999999999989468 0  1 0.6499999999990784 0  1 0.69999999999921 0  1 0.7499999999993417 0  1 0.7999999999994734 0  1 0.8499999999996051 0  1 0.8999999999997368 0  1 0.9499999999998684 0  0.9499999999997918 1 0  0.8999999999995836 1 0  0.8499999999996529 1 0  0.7999999999999998 1 0  0.7500000000003466 1 0  0.7000000000006934 1 0  0.6500000000010401 1 0  0.6000000000013869 1 0  0.5500000000017335 1 0  0.5000000000020587 1 0  0.4500000000018723 1 0  0.4000000000016644 1 0  0.3500000000014564 1 0  0.3000000000012483 1 0  0.2500000000010403 1 0  0.2000000000008322 1 0  0.1500000000006241 1 0  0.100000000000416 1 0  0.05000000000020799 1 0  -0.1 1.05000000000004 0  -0.1 1.000000000000079 0  -0.1 0.9500000000001624 0  -0.1 0.9000000000003032 0  -0.1 0.850000000000444 0  -0.1 0.8000000000005848 0  -0.1 0.7500000000007256 0  -0.1 0.7000000000008665 0  -0.1 0.6500000000010508 0  -0.1 0.6000000000012352 0  -0.1 0.5500000000014196 0  -0.1 0.500000000001539 0  -0.1 0.4500000000014195 0  -0.1 0.4000000000013 0  -0.1 0.3500000000011588 0  -0.1 0.3000000000010178 0  -0.1 0.2500000000008986 0  -0.1 0.2000000000007579 0  -0.1 0.1500000000006174 0  -0.1 0.1000000000005272 0  -0.1 0.05000000000040083 0  -0.1 2.671196597248127e-13 0  -0.1 -0.0499999999998666 0  -0.0500000000000906 -0.1 0  -1.730560139634463e-13 -0.1 0  0.04999999999975802 -0.1 0  0.09999999999961506 -0.1 0  0.1499999999994613 -0.1 0  0.199999999999302 -0.1 0  0.2499999999991446 -0.1 0  0.2999999999990088 -0.1 0  0.3499999999988296 -0.1 0  0.3999999999986936 -0.1 0  0.4499999999985143 -0.1 0  0.4999999999984002 -0.1 0  0.5499999999985247 -0.1 0  0.5999999999986493 -0.1 0  0.6499999999987955 -0.1 0  0.6999999999989417 -0.1 0  0.7499999999990659 -0.1 0  0.7999999999992116 -0.1 0  0.8499999999993573 -0.1 0  0.8999999999994526 -0.1 0  0.949999999999584 -0.1 0  0.9999999999997226 -0.1 0  1.049999999999861 -0.1 0  1.1 -0.0500000000000906 0  1.1 -1.730560139634463e-13 0  1.1 0.04999999999975802 0  1.1 0.09999999999961506 0  1.1 0.1499999999994613 0  1.1 0.199999999999302 0  1.1 0.2499999999991446 0  1.1 0.2999999999990088 0  1.1 0.3499999999988296 0  1.1 0.3999999999986936 0  1.1 0.4499999999985143 0  1.1 0.4999999999984002 0  1.1 0.5499999999985247 0  1.1 0.5999999999986493 0  1.1 0.6499999999987955 0  1.1 0.6999999999989417 0  1.1 0.7499999999990659 0  1.1 0.7999999999992116 0  1.1 0.8499999999993573 0  1.1 0.8999999999994526 0  1.1 0.949999999999584 0  1.1 0.9999999999997226 0  1.1 1.049999999999861 0  1.05000000000004 1.1 0  1.000000000000079 1.1 0  0.9500000000001624 1.1 0  0.9000000000003032 1.1 0  0.850000000000444 1.1 0  0.8000000000005848 1.1 0  0.7500000000007256 1.1 0  0.7000000000008665 1.1 0  0.6500000000010508 1.1 0  0.6000000000012352 1.1 0  0.5500000000014196 1.1 0  0.500000000001539 1.1 0  0.4500000000014195 1.1 0  0.4000000000013 1.1 0  0.3500000000011588 1.1 0  0.3000000000010178 1.1 0  0.2500000000008986 1.1 0  0.2000000000007579 1.1 0  0.1500000000006174 1.1 0  0.1000000000005272 1.1 0  0.05000000000040083 1.1 0  2.671196597248127e-13 1.1 0  -0.0499999999998666 1.1 0  0.6654619960414713 0.7122091929241197 0  0.6896306496372631 0.7037998605194318 0  0.7117500505045795 0.6926771307942757 0  0.7310367481261613 0.6785167025729338 0  0.7480197725349481 0.6620319820417596 0  0.7624693373153562 0.642862219786554 0  0.7746645073420853 0.6216386471558512 0  0.7842066613803008 0.5985586941319185 0  0.7914795079468588 0.5741849858631807 0  0.7966928928096966 0.5488951899245417 0  0.7997217099099156 0.5233856357535913 0  0.8007970633066487 0.4976705425527302 0  0.7999856435114926 0.4720565717040863 0  0.7969696381740564 0.4466900643718523 0  0.7917244722390442 0.4223201570488238 0  0.784861831073809 0.3989271975546077 0  0.7755621929712258 0.3770719886323988 0  0.7639846859166407 0.3571244153720309 0  0.7503092344541011 0.3392531987969377 0  0.7343959395415435 0.3237585847827534 0  0.7162744539970494 0.3095397085963959 0  0.6945755551739373 0.2983056754238669 0  0.6700008638609318 0.2893460031835359 0  0.6432656457903534 0.2832676976108566 0  0.6147910955191774 0.2794720868450961 0  0.5854627601479743 0.2773211149640892 0  0.5546091623170207 0.2761568086823118 0  0.5235863543981968 0.2758808827986193 0  0.4927613996062803 0.275912090973494 0  0.4618136476027874 0.2760079757239419 0  0.4311531221269491 0.2761404867019989 0  0.4008075872389371 0.2772700690140909 0  0.3728699686792743 0.2798723974040367 0  0.3472654672653617 0.2845872013396217 0  0.3234339204727242 0.2910453167284028 0  0.3030378976138738 0.2993981200244956 0  0.2848668016458876 0.309451486436824 0  0.2686229432785529 0.3211769790432456 0  0.2542080042153533 0.3347817379124621 0  0.2414725667517135 0.3504881733383203 0  0.2304103544786871 0.3681610982131422 0  0.2203922658092713 0.3888691471145967 0  0.2117043743883248 0.4124327150627681 0  0.2051987240380202 0.4386980826022362 0  0.2012283939371868 0.4665348149511838 0  0.1993258859864423 0.4944846909979592 0  0.1993667007481217 0.5233336789781972 0  0.2025601884591365 0.551404518193192 0  0.2080102613057076 0.5789174109282228 0  0.2165823072584345 0.6051182174770364 0  0.2277327449551883 0.6276016256928003 0  0.2402098469172603 0.6470051582916663 0  0.2536806944392208 0.6631745868507133 0  0.2682376395512088 0.6769887792691638 0  0.284343714882581 0.6889435495028979 0  0.3025449651013254 0.6994667847587663 0  0.3232416962441865 0.7082940566731796 0  0.3463829183907228 0.7149986392682451 0  0.371821756333592 0.719673038369678 0  0.4000070512684613 0.7219119769891981 0  0.4292439473043801 0.7235980973054951 0  0.459590356040197 0.7242761803247866 0  0.4903426873507629 0.7245284036092141 0  0.5212919240576733 0.7248485605782954 0  0.5521627267418602 0.725286589299745 0  0.5831130373243584 0.7254234107388431 0  0.6123394469143798 0.7229827514002771 0  0.2623387820444715 0.633402273193585 0  0.2445701092684716 0.3984361411742536 0  0.7481003639100164 0.623645309197535 0  0.7758099274434969 0.5339208929135941 0  0.6432782227679765 0.697581964115203 0  0.6218747677676778 0.2983142973560194 0  0.723563647775605 0.3454088080361509 0  0.513365377747675 0.2925853200785289 0  0.2823589808717373 0.3490794367248764 0  0.3302300534205103 0.3146221894256002 0  0.4308853697772756 0.3002899617715288 0  0.3093015309557123 0.6734581391497431 0  0.3709728030369428 0.696483580005569 0  0.4511672638546017 0.7035998381744557 0  0.5375681490032572 0.7068496175224868 0  0.7649850186968938 0.4182870128322744 0  0.2212684704098947 0.5552737043306147 0  0.2210427709949923 0.4649733662269981 0  0.7075117880446398 0.669510832793056 0  0.3751175612005396 0.3027618248774501 0  0.774141224344353 0.464633517598459 0  0.5935943101654244 0.705422926446356 0  0.7658318903035231 0.5783721662006287 0  0.7475029646205366 0.3786856009227089 0  0.6895964629481635 0.3185597209678952 0  0.5729289472225003 0.2916744488144742 0  0.2374998512297506 0.5995801868711129 0  0.2140919202531644 0.5079742037254691 0  0.4805010425476787 0.7050079288981151 0  0.4733906254115865 0.6836200214313222 0  0.4438208046896148 0.6818042585590542 0  0.4662046393782895 0.6611042130912707 0  0.4347090111571859 0.6587954630291425 0  0.453115906735389 0.6404606285782618 0  0.4802790946123304 0.6355120538000016 0  0.4263900332943423 0.6339492769558219 0  0.4505968378547175 0.6076876468107664 0  0.4084690809445168 0.6052360462651264 0  0.5008592237526079 0.6007348455790504 0  0.5424064850889363 0.6293359449749388 0  0.5493611438995302 0.5825168182351192 0  0.5851407118986406 0.6162874471724938 0  0.5964138372538509 0.5694284311803814 0  0.630407216948713 0.6026782291566875 0  0.6429002354669497 0.555449164887997 0  0.6780671254962818 0.5839986440567094 0  0.6908732634631446 0.5472925906799145 0  0.6563253162099191 0.5198907555450849 0  0.6975049721098454 0.51657001811877 0  0.6759610618533477 0.4862607814281064 0  0.6273214200357533 0.4945747773302184 0  0.6415663453002522 0.4587931056123574 0  0.6893097614217206 0.4462132521830109 0  0.660357410274492 0.4196850615269355 0  0.611317928869102 0.4304090287607021 0  0.6266938168626465 0.3965523727275093 0  0.5809523119813946 0.40265543930869 0  0.6001697811323907 0.3681194198418834 0  0.5489160015780071 0.3693359153263518 0  0.5351307418989947 0.4058910761407719 0  0.5008727149243176 0.3700100893416496 0  0.4874026907739175 0.4094930089080304 0  0.4518853585603479 0.3717202388903845 0  0.439771073564769 0.4113456616504056 0  0.6635590246970452
[...]
<PointData  Scalars="v"> 
<DataArray  type="Float64"  Name="v"  format="ascii">5.9684305707529172e-20  1.2740636804710075e-19  6.0358931183024677e-20  2.7393478104306330e-21  -1.0206342253933071e-21  -3.5097532213753653e-21  -3.5911832013673439e-22  -7.5432149654521494e-21  -1.6815406347991263e-05  -1.2124360246198026e-06  -7.2815743045957144e-20  6.0249340824706269e-19  7.3280020611897210e-19  -3.7191749540773300e-19  1.8530877006078668e-18  1.5716554771309363e-18  -8.7138442832870469e-19  4.1718037291629116e-19  -1.5034719427393702e-19  1.0167215274230210e-19  1.4835489667615131e-18  5.5122265218072021e-19  -4.9820499485691900e-19  9.1380447793966350e-19  -1.3497135849211120e-18  2.7639490512982388e-19  6.3506488730100488e-19  6.5326195355095035e-19  -2.6939320795456444e-19  3.9830362834764877e-19  3.8788441658805859e-19  2.4010735420969197e-19  -1.9993739481233788e-19  6.0954605122888872e-19  -1.6152181798094077e-19  -2.3742802764327958e-18  -2.2624553996213890e-18  1.0671481173623376e-18  1.2622186618998733e-18  1.1024394440245211e-18  -6.5552981354023613e-20  7.3578821347081223e-19  8.8484990814425923e-19  5.7604263967199908e-19  7.0177218377570995e-19  1.5610277310754563e-19  3.6804124871818367e-19  -1.6142443801978008e-19  1.6852376119762959e-20  -1.4314642251127920e-19  4.5954337315103238e-19  3.4427621226035400e-18  -4.2850016591547160e-18  -4.3165744458698339e-20  1.1462682622793417e-18  3.6998388049722448e-19  -6.9854269005061915e-18  5.8153339828338901e-19  8.7055801265804497e-18  1.0646988329443651e-18  -2.1371226359869272e-18  -6.5879585745328532e-19  6.5304236602460614e-19  -3.4229710833688158e-18  -1.3568816348395653e-19  -1.0138780249164632e-19  8.9014334918575253e-19  -9.9724801348087843e-21  1.7673651725299082e-18  2.9329292556377852e-19  -3.1144093579773809e-18  2.1362714320498113e-19  3.9548788090550767e-19  3.7111786520527896e-20  6.5270308503175447e-18  -5.5053355554335431e-18  -6.3651222060501944e-18  5.0168373563628177e-18  -6.0801245478865678e-19  -5.6038100277831356e-18  -5.1950272840377032e-18  3.1645225467293935e-18  -2.4706593118806239e-19  2.5324058109246104e-19  -8.0689979598372873e-19  -6.7506350258648721e-19  6.3732963394394477e-21  3.8823816290492091e-21  8.4311108064638733e-21  8.3873457171351550e-20  5.8585403126976250e-20  2.6847423795312824e-20  2.0179728304608099e-19  7.9485950301121288e-20  -2.6290181883340378e-20  -2.0393659822228283e-20  3.5189992619543702e-20  5.1537855078817921e-20  1.9186451932953709e-19  4.1301078178137607e-20  6.8799858248433676e-20  8.8235811890325279e-20  -1.3595103729571906e-19  -4.5442863979628090e-20  1.1164201802557217e-19  7.6601041458762068e-20  -1.7345525967557414e-21  -1.3252019935521381e-20  9.1917946668487903e-21  -1.9723487467109630e-21  8.5053078937417887e-21  4.7580026242048008e-20  6.0212215686121017e-20  2.0603255180912567e-20  -1.5434768714095584e-20  6.5684665103308703e-20  -8.4952201143567414e-20  -3.4574345912953844e-19  -2.8169801217308854e-19  9.6950490296499629e-20  2.1208058056592136e-19  8.1514019512103616e-20  4.1023636480111059e-20  8.9616707426942563e-20  7.6424826069834207e-20  8.4296409830241478e-20  8.3803871863169444e-20  4.6127124623394637e-20  2.7252042876596675e-20  -6.7395428517546802e-22  -1.1086963182074180e-20  4.1907050031361062e-21  -1.0337004230239477e-21  2.9671841775412604e-21  -3.4083356061549879e-21  1.5412103640597078e-20  7.8060406756108055e-20  6.0122196920493921e-20  -5.8269926557825964e-20  -1.5043784370582098e-20  5.6462716898549063e-20  6.8106107601134539e-20  3.0453832406659542e-20  -2.6453675812557217e-20  2.0835681972607625e-20  8.8868698696546207e-20  -8.9572660053073737e-20  -1.3064495346417890e-20  9.0870637373476133e-20  6.1445326331413124e-20  -1.4640941833467328e-20  -1.8441797103923729e-20  -3.2196189438106816e-21  8.9983422799114183e-23  1.6948472980396365e-22  1.0508497791749246e-21  -3.6673170367957016e-21  4.9796622386418487e-21  3.4195612641779288e-20  4.5284965915025038e-20  3.0714638795084222e-20  3.4072844038415929e-20  4.5573542415704986e-20  2.7353690304027205e-20  7.8733728745740031e-21  1.2741446796923771e-20  -1.5489528953514671e-20  -5.1288557476158571e-20  4.3241526897788053e-20  2.6901101552023796e-20  -5.9546087178228571e-20  -3.1801199801856389e-20  1.3106720283721479e-20  4.1894131178646679e-20  3.5707098718500905e-20  1.6621085115739722e-21  5.6746498299711934e-21  6.2862236442263333e-21  1.7732224030861709e-06  5.5044153106802522e-06  9.8326520245720398e-06  1.4047229231273716e-05  1.5981793120483516e-05  1.7447787678601689e-05  1.8018192213463525e-05  1.7968709156972960e-05  1.6750489528820028e-05  1.5984945675041532e-05  1.5474931107458541e-05  1.5123823186518795e-05  1.4377218485289825e-05  1.4609958108417182e-05  1.5155120065909963e-05  1.5810868406358534e-05  1.6365059765711565e-05  1.6601622545479156e-05  1.6607384246521712e-05  1.6003644735980647e-05  1.2884537982681682e-05  1.0217733927125876e-05  7.5658296166977742e-06  4.8417313669817267e-06  3.7373712099999110e-06  2.0852598545947866e-06  1.5165223453628552e-06  1.5500598827749362e-06  1.9204500361342125e-06  1.7286768692893599e-06  2.3587308949612799e-06  4.2943586148370735e-06  5.7020888986007371e-06  7.5447709588666605e-06  1.0502718022480313e-05  1.3011335700050053e-05  1.5694919555824094e-05  1.7443130860494087e-05  1.8932746706824012e-05  1.9489855203583347e-05  1.8991212904984151e-05  1.7943138555390069e-05  1.6246623105774978e-05  1.4514278994634707e-05  1.3499502606485264e-05  1.2623535134113426e-05  1.2529623760255686e-05  1.3234437553938234e-05  1.3949310393629478e-05  1.5629775746700050e-05  1.7782489749802663e-05  1.8805653784022393e-05  1.9201353879061032e-05  1.8607703702499734e-05  1.6802910152387555e-05  1.3902303337090641e-05  1.0164552633501250e-05  6.9138060178121893e-06  3.5163347503608074e-06  6.2971240483861882e-07  -2.2549582796359167e-06  -4.3397326764763346e-06  -5.4889889492033454e-06  -6.5167162258789963e-06  -6.5109614835864451e-06  -6.2102712742933151e-06  -3.6070599460798438e-06  1.3407041022905132e-05  1.3570731950658956e-05  1.2342103535761156e-05  1.1824707859135476e-05  -7.9164426222980107e-06  -2.1038462307229484e-06  1.1262420077014482e-05  -7.5490319315415691e-06  1.2443879306872880e-05  8.0987318239642174e-06  -3.6756212638561093e-07  9.6707291756007006e-06  1.3350312987936353e-06  -7.9420193990640451e-06  -1.4032187088584927e-05  1.2980329146852165e-05  9.1268235956819155e-06  8.8346661306692221e-06  6.9844867449759776e-06  3.6948467083631063e-06  1.2950825469977925e-05  -1.4932470944381613e-05  1.3503373565282789e-05  1.2631076181208988e-05  8.5039408087545571e-06  -9.7282643881839676e-06  1.3271561035884280e-05  8.6282243684860530e-06  -1.0408579747800173e-05  -9.3028195245106874e-06  -7.1580781152240610e-06  -1.0304380418028540e-05  -7.8502519513620523e-06  -1.0720562264057703e-05  -1.3725548033571240e-05  -8.4791441915397520e-06  -1.3350376504723695e-05  -8.1984593921154536e-06  -1.6361850674056253e-05  -1.5719281491598300e-05  -1.5470882454524146e-05  -1.2972044101203499e-05  -1.1536188758267691e-05  -7.9265853610403198e-06  -5.3397307083277102e-06  1.1646230700128062e-06  2.7208869413369006e-06  -2.7127542975019871e-06  3.4850714434949745e-06  4.6881991732648112e-07  -6.5252740718208203e-06  -4.3034469407578495e-06  3.0257942474294392e-06  2.9278677512900859e-07  -6.9736587458967093e-06  -4.0162437031414058e-06  -8.8340521686994671e-06  -6.1256183527216576e-06  -8.9646202472074146e-06  -1.1559715296018950e-05  -1.0459844845484635e-05  -1.2847704079504169e-05  -9.4096157740303046e-06  -1.0626410048721882e-05  -8.9059166546676273e-07  -5.3349399685023486e-06  -6.0802189529160983e-06  -4.9974434971142465e-06  -4.4130100367999755e-06  -3.4050850094548507e-06  -7.6218961378480855e-06  -3.2357301536222509e-06  -6.5959540073707554e-06  -1.4258573879502457e-06  1.5459495261680621e-06  2.9989301283544255e-06  1.6373192107130698e-06  3.8646842608178532e-06  3.5237310917007877e-06  5.4695374406919854e-06  -1.0765587045179115e-05  7.7004880891101936e-07  3.6987776046068764e-06  -1.0484848738365221e-05  -3.8907500574612991e-07  7.7293076566587651e-06  8.6245572391376649e-06  8.4054269577261472e-06  -8.6524319407449462e-07  5.3147981437559998e-06  -1.2358000876919660e-05  -5.9815107196167974e-06  -1.0441469840409141e-05  -1.2552264927800291e-06  6.4614851913927099e-06  -3.4015159749115308e-06  3.9300722490706819e-07  5.2130555329913065e-06  5.5144695762807136e-06  -4.5146600378307775e-06  1.9957262378586017e-06  2.0438690537882581e-06  -9.5001789605845197e-06  -8.0807233847950655e-06  8.3794422437337607e-06  9.0387763421139104e-06  7.5892786674865223e-06  9.7667550756250527e-06  -1.5293351300566488e-05  1.2451394534038204e-06  7.8188968104125295e-06  4.5381214466673390e-06  3.2017695712463704e-06  -2.0114061322537949e-06  -2.5817855907010748e-06  -4.2168870974003098e-06  -6.7811005788908808e-06  -4.8061572586373504e-06  5.7704120013753064e-06  9.5209831311572727e-06  3.4555676255108991e-06  -7.3696127313118117e-07  -3.1896722189447428e-06  8.7390327778893121e-06  2.0975215950373384e-06  7.6276034656780226e-06  5.4875700807782993e-06  9.9959084341291431e-06  1.0499362080131484e-05  5.2191970823402236e-06  8.8365876544083060e-06  1.0241976250956080e-05  1.0029818615904496e-05  1.0457983811321998e-05  -1.2628889175418801e-05  -1.1537491155396678e-05  -1.5456962858144994e-05  7.9756407189135268e-06  7.6822533701218569e-06  1.0946757864852620e-05  2.9520295400033772e-07  -5.1566339773382946e-06  -9.8496021896455423e-06  1.1244556376874335e-05  5.3701523643239590e-06  9.7737266338617549e-06  4.6363775677715842e-06  -1.5017225875201451e-05  1.1954197443418109e-05  1.2922017647650035e-05  -9.8051533130555036e-06  -4.1016405114989913e-06  -4.3020310269614537e-06  1.2616393022031579e-05  -4.6687071395842491e-06  1.1198716772265600e-05  9.6303817783391528e-06  -8.8634075689034276e-06  1.2694432465425996e-05  4.8126975409625586e-06  3.4608730210270699e-06  -1.4993610491949882e-07  -4.6326873988233134e-06  -5.5240643906643110e-06  5.4225949425001374e-06  1.0752541721449621e-05  1.1714607311946538e-05  -1.7846379137717595e-07  -6.0159999775748761e-06  3.9947962032722246e-07  -1.3624963848660542e-06  1.1490337282871981e-05  9.4912958967674657e-06  7.3445848033060813e-06  5.8210357301521767e-06  1.3162717115315418e-05  1.0931079516421494e-05  -1.5751513769678055e-05  1.3080148109397326e-05  -1.5683674384866731e-06  1.0091056579201267e-05  -1.7664421024429969e-06  1.2797245920535676e-05  1.3610116303582694e-05  1.0965752134801509e-05  -1.1738116839871484e-05  1.3692939487326448e-05  1.2129756832281973e-05  1.3058726230603560e-05  1.4654022842210235e-06  3.4525591705857014e-06  -3.8712929234880412e-07  6.6673562974904466e-06  -9.4285903756271239e-06  -7.8484171832027190e-06  -1.2328275802217395e-05  9.1956804186229841e-06  -1.1922088716199096e-05  -3.3493267044270377e-06  1.1082475332012783e-05  -1.1801241638412902e-05  -1.5474849703252642e-05  -1.4905868562745105e-05  9.9023114957538745e-06  1.0547115796560425e-06  9.2251535578298350e-06  -9.3110091603442440e-06  1.5391954141661236e-06  1.3669497516643506e-05  -1.4993041292503981e-05  1.1003922000810238e-05  -2.1450005199400597e-06  1.2850765875455292e-05  -1.6786439937105397e-05  2.2024793937391347e-06  -3.1796167835484094e-06  1.1113063634651368e-05  7.9339209387687975e-06  1.1545524362384253e-05  -4.7866902741821819e-06  9.5635560327459031e-06  -1.6259101528465211e-06  -1.1347645819260447e-05  3.5907673074520679e-06  -2.4992290386653467e-06  1.5611867947311636e-06  8.0198373999656698e-06  5.2517961040431425e-06  1.1189650608574006e-05  -1.4138903042430414e-05  1.1206888818872761e-05  6.6948541932644685e-06  8.9645673417203538e-06  1.1522833420410032e-05  -1.2202022908406745e-05  6.9088456316876703e-06  1.4098122214235856e-05  8.1659509610654652e-06  -5.8599235235248694e-06  -4.9887317161994013e-06  1.0973303043864176e-06  -2.8472654726004180e-06  1.2107877202731588e-05  4.5264357294242575e-06  -7.9123709094146524e-06  -3.4484734897895164e-06  9.7454435996774859e-06  2.8969774740955557e-06  9.0101816898259313e-06  5.2546104618261953e-06  -4.4528706452938081e-06  6.2041316823087994e-06  -6.9790326437706106e-06  1.0560124029105585e-05  9.7422122700697560e-06  -1.0817263429777473e-05  -1.0673817363934088e-05  1.0030704252996569e-05  -4.9685314229816712e-06  -2.7956844903847969e-07  -6.2737471015664154e-06  -4.4368270093901523e-07  -9.9275978791745693e-07  -1.9089958040808386e-06  -1.2544926469547497e-05  8.7947620363245390e-06  -6.9571241323846721e-06  7.1980223124652794e-06  -1.1759774852161812e-05  -1.0639898160288570e-05  -3.9329173195643655e-07  -1.2228553120574720e-05  -1.5941124041212948e-05  2.3882869863361163e-06  -9.9882098603648037e-06  -6.3712736359051916e-06  -2.3757811737002823e-06  3.2695749319232187e-06  -2.5831253678374878e-06  6.7567068534907499e-06  6.1367795439054133e-06  7.2093354935424023e-06  1.6677824185702338e-05  1.7020713050355689e-05  1.4352188728865600e-05  1.1856273582985977e-05  1.6408231885931897e-05  1.0735879659445833e-05  9.8680996875516546e-06  4.3699436346122794e-06  1.8772329303690293e-05  8.3770157323054969e-07  1.6286586670312675e-05  1.7819762395427361e-05  5.5329721742866286e-06  1.0049686278293828e-05  -4.5952998195366074e-06  4.0934080388200128e-06  5.2503534177082378e-06  5.0342930830300026e-06  1.7472844087149435e-05  5.0182594876515547e-06  5.7189391987086723e-06  6.1914328148396362e-06  3.8870536704972832e-06  1.5708905763934026e-05  6.0107476416862070e-06  1.6749711290709856e-05  5.7897025658956024e-06  2.9484880790536094e-06  6.0947977874161229e-06  -5.8838001428555479e-07  1.5948477859051435e-05  1.5509993760998628e-05  3.9156187313618301e-06  3.7954231562367477e-06  1.5969588941678658e-05  5.7441872090130084e-06  3.5534969690081415e-06  4.3071073089594779e-06  6.1072145913494433e-06  5.3154583338016376e-06  -3.5473607934203593e-06  3.2639760432456150e-06  6.7219869199012378e-06  1.3959159120923604e-05  6.5804678410022697e-06  3.4709477824040131e-06  3.4323437603585169e-06  1.3882915973619761e-05  7.6018327632978728e-06  6.7968400994639290e-06  4.9397575987490510e-06  4.8241021640958790e-06  6.8192144137116647e-06  3.9640526552724682e-06  4.9619978370756491e-06  7.1312717403020276e-06  4.4008054933762560e-06  4.9281274038603338e-06  2.4634429023861157e-06  2.7639895712033100e-06  1.3718183397819900e-05  1.3921224381620032e-05  1.3763846961055746e-05  1.3633658913197476e-05  1.4025340383053551e-05  1.3334509608297882e-05  1.2449865684963871e-05  1.3713406068592362e-05  1.2907796015974981e-05  1.3567997477565331e-05  1.4369588721594977e-05  7.9741671877312430e-06  1.0111488764396513e-05  1.1773363612245296e-05  1.2068187618651050e-05  1.3471248778626887e-05  1.0720489769493329e-05  1.3862734173185402e-05  1.5159950034808948e-05  1.5049164313360431e-05  1.6186263715554928e-05  1.6567489396436200e-05  1.6943781660766211e-05  1.7189458672384712e-05  1.6172183435194785e-05  1.6796653510135878e-05  1.6968343002039990e-05  1.5581710411555133e-05  1.5229319134658008e-05  1.5438941426907056e-05  1.6590459884437540e-05  1.4850453004848097e-05  1.6080263731637462e-05  1.4468946116512245e-05  1.3754036045368951e-05  1.4349982060650545e-05  1.5559487048133830e-05  1.4377748050617086e-05  1.3205010938887003e-05  1.3280646162346950e-05  1.2176606641606056e-05  1.6575089367284233e-05  1.6670802839278163e-05  1.1949157014014285e-05  1.4009478803912279e-05  1.2012987074596968e-05  1.4155266980477818e-05  1.2512520722758110e-05  1.4802307441261305e-05  1.3077304837748663e-05  1.5327755672818659e-05  1.3562219962786050e-05  1.5717086576889699e-05  1.4283069707043518e-05  1.6295111524463532e-05  1.4615995985079421e-05  1.6461046826897707e-05  1.4816191921133345e-05  1.6610946577490092e-05  1.4945291980649697e-05  1.6346960565016968e-05  1.4525838235188613e-05  1.5905541008975416e-05  1.6415699090019138e-05  1.5774792531746937e-05  1.5022733818203511e-05  1.4521574956369507e-05  1.4292706671950123e-05  1.2959624356837401e-05  1.1866898992465309e-05  1.3393268251876326e-05  1.0901847766239936e-05  9.5149096797423602e-06  1.1127952743832658e-05  1.2795727083004661e-05  1.1158868677165660e-05  8.9364704693229121e-06  7.2124048634843573e-06  1.2638867327383052e-05  6.8140680088405909e-06  4.1630864379312566e-06  5.4642789373945323e-06  3.2132187627795203e-06  4.7971773137961489e-06  2.7262980743947797e-06  4.8597207313391877e-07  1.1671120727831972e-07  2.6722758106096625e-06  1.4465783200560549e-06  3.4729485613779356e-06  2.9131780719235993e-06  4.9738549624265271e-07  2.7358500844483724e-06  4.5384521453195713e-06  5.4352873883115555e-06  6.3803233877076875e-06  7.6691133448578547e-06  6.5042256277158557e-06  9.4256921954443416e-06  9.5961855732132488e-06  1.1804008927504631e-05  1.1563471133561679e-05  1.3734673251052382e-05  1.3251855151288425e-05  1.4917958607080482e-05  1.5502810860167485e-05  1.6673175747000009e-05  1.5530538718377764e-05  1.6923272816351602e-05  1.7790806347161331e-05  1.5285591085368111e-05  1.7256149521346746e-05  1.7799492062132431e-05  1.6373725683888646e-05  1.6905977380904334e-05  1.7993843209964832e-05  1.5053195289899171e-05  1.3741936888793982e-05  1.2918614194200364e-05  1.7133057212877682e-05  1.4715634205756603e-05  1.5841563966638864e-05  1.2699876136821782e-05  1.7063620718956634e-05  1.5727106463733673e-05  1.4265940932257151e-05  9.2425556294153741e-06  1.6731652631497082e-05  1.4028629023164826e-05  1.3993455155073890e-05  6.3002555123067429e-06  1.1047799416744613e-05  3.8685097522965546e-08  3.7788264557217912e-06  1.1928485865990873e-05  1.4350238441494120e-05  1.6728856030919045e-05  1.1333361843326731e-05  1.5169965546104172e-05  4.0257558123156619e-06  5.2894121307379981e-06  1.3502798693969981e-05  8.4769833613465953e-06  1.0843436432149563e-05  -1.8887074345743090e-06  -1.3234801639367376e-06  1.1350920844060462e-06  1.2474155045957362e-05  1.2147895618947660e-05  1.1287613965373837e-05  1.1187728690148804e-05  1.0423070335083203e-05  8.9732958671729604e-06  8.5967556267198342e-06  9.7382478397546977e-06  8.5120104317956615e-06  9.3865407350473990e-06  8.8982556652795526e-06  7.3798450497852227e-06  7.5656660552512762e-06  9.0552087780781426e-06  8.5654882492220772e-06  6.9655642325498799e-06  8.5448764404184396e-06  9.5154001646077315e-06  1.0448668804234554e-05  9.4166486502711495e-06  1.1422162385717284e-05  1.1777643010677013e-05  1.2995689841100493e-05  1.2753710116934098e-05  1.4285670006023386e-05  1.4340532969948883e-05  1.6054738336090339e-05  1.5390361194490394e-05  1.6893463460062807e-05  1.7419431185532504e-05  1.7584270727793559e-05  1.8232261748913398e-05  1.7664851121773150e-05  1.6491314279790711e-05  1.8310029542582244e-05  1.7024842766172629e-05  1.7565912260287092e-05  1.8331362778166537e-05  1.5666052420407281e-05  1.0144085915574095e-05  1.1140135861556333e-05  1.1538530009496867e-05  1.5643424474933466e-05  1.6321955444608615e-05  1.7593609135082350e-05  1.6589490195514161e-05  1.7225106094426906e-05  1.5105359727473041e-05  1.5057306195707818e-05  8.1489671861868737e-06  9.1737648967995583e-06  1.1059679977283886e-05  1.7852707370635893e-05  1.5582896418876104e-05  9.3275261470991479e-06  6.2841349383791845e-06  1.6378133975183647e-05  -1.9711833742430662e-06  1.2214698958294165e-05  7.9314970915816786e-06  6.6783412336709264e-06  1.7622482852135017e-05  -1.1459068704136444e-06  1.3389323181934483e-05  1.5706685386133985e-05  1.6320494182256277e-05  1.6860127807256414e-05  1.1832850450241186e-05  6.9665779147176661e-06  -3.1204395774771101e-06  1.4465637558911631e-05  1.5727277549205455e-05  1.4648118246195790e-05  1.6709934643341704e-05  1.6513035565294720e-05  1.5267315000227818e-05  8.8065167102079272e-06  1.1684118424654111e-05  7.1444586213273991e-06  5.2171949140570423e-06  9.2349715278986641e-06  1.0726211396142279e-05  1.1811718213285185e-05  1.1528040969423756e-05  -3.5231740292204061e-06  9.0563344464860078e-06  1.0681121209062499e-05  