<?xml version="1.0"?>
<VTKFile type="UnstructuredGrid"  version="0.1"  >
<UnstructuredGrid>
<Piece  NumberOfPoints="1277" NumberOfCells="2456">
<Points>
<DataArray  type="Float64"  NumberOfComponents="3"  format="ascii">0 0 0  0 1 0  1 1 0  1 0 0  1.1 -0.1 0  -0.1 -0.1 0  1.1 1.1 0  -0.1 1.1 0  0.5076939745860023 0.5044379791450192 0  0.6355268389970338 0.7174100280477961 0  0 0.9499999999997918 0  0 0.8999999999995836 0  0 0.8499999999996529 0  0 0.7999999999999998 0  0 0.7500000000003466 0  0 0.7000000000006934 0  0 0.6500000000010401 0  0 0.6000000000013869 0  0 0.5500000000017335 0  0 0.5000000000020587 0  0 0.4500000000018723 0  0 0.4000000000016644 0  0 0.3500000000014564 0  0 0.3000000000012483 0  0 0.2500000000010403 0  0 0.2000000000008322 0  0 0.1500000000006241 0  0 0.100000000000416 0  0 0.05000000000020799 0  0.04999999999989965 0 0  0.09999999999981467 0 0  0.1499999999997036 0 0  0.1999999999995579 0 0  0.2499999999994121 0 0  0.2999999999992664 0 0  0.3499999999991206 0 0  0.3999999999989749 0 0  0.4499999999988292 0 0  0.4999999999986943 0 0  0.5499999999988151 0 0  0.5999999999989468 0 0  0.6499999999990784 0 0  0.69999999999921 0 0  0.7499999999993417 0 0  0.7999999999994734 0 0  0.8499999999996051 0 0  0.8999999999997368 0 0  0.9499999999998684 0 0  1 0.04999999999989965 0  1 0.09999999999981467 0  1 0.1499999999997036 0  1 0.1999999999995579 0  1 0.2499999999994121 0  1 0.2999999999992664 0  1 0.3499999999991206 0  1 0.3999999999989749 0  1 0.4499999999988292 0  1 0.4999999999986943 0  1 0.5499999999988151 0  1 0.5999999999989468 0  1 0.6499999999990784 0  1 0.69999999999921 0  1 0.7499999999993417 0  1 0.7999999999994734 0  1 0.8499999999996051 0  1 0.8999999999997368 0  1 0.9499999999998684 0  0.9499999999997918 1 0  0.8999999999995836 1 0  0.8499999999996529 1 0  0.7999999999999998 1 0  0.7500000000003466 1 0  0.7000000000006934 1 0  0.6500000000010401 1 0  0.6000000000013869 1 0  0.5500000000017335 1 0  0.5000000000020587 1 0  0.4500000000018723 1 0  0.4000000000016644 1 0  0.3500000000014564 1 0  0.3000000000012483 1 0  0.2500000000010403 1 0  0.2000000000008322 1 0  0.1500000000006241 1 0  0.100000000000416 1 0  0.05000000000020799 1 0  -0.1 1.05000000000004 0  -0.1 1.000000000000079 0  -0.1 0.9500000000001624 0  -0.1 0.9000000000003032 0  -0.1 0.850000000000444 0  -0.1 0.8000000000005848 0  -0.1 0.7500000000007256 0  -0.1 0.7000000000008665 0  -0.1 0.6500000000010508 0  -0.1 0.6000000000012352 0  -0.1 0.5500000000014196 0  -0.1 0.500000000001539 0  -0.1 0.4500000000014195 0  -0.1 0.4000000000013 0  -0.1 0.3500000000011588 0  -0.1 0.3000000000010178 0  -0.1 0.2500000000008986 0  -0.1 0.2000000000007579 0  -0.1 0.1500000000006174 0  -0.1 0.1000000000005272 0  -0.1 0.05000000000040083 0  -0.1 2.671196597248127e-13 0  -0.1 -0.0499999999998666 0  -0.0500000000000906 -0.1 0  -1.730560139634463e-13 -0.1 0  0.04999999999975802 -0.1 0  0.09999999999961506 -0.1 0  0.1499999999994613 -0.1 0  0.199999999999302 -0.1 0  0.2499999999991446 -0.1 0  0.2999999999990088 -0.1 0  0.3499999999988296 -0.1 0  0.3999999999986936 -0.1 0  0.4499999999985143 -0.1 0  0.4999999999984002 -0.1 0  0.5499999999985247 -0.1 0  0.5999999999986493 -0.1 0  0.6499999999987955 -0.1 0  0.6999999999989417 -0.1 0  0.7499999999990659 -0.1 0  0.7999999999992116 -0.1 0  0.8499999999993573 -0.1 0  0.8999999999994526 -0.1 0  0.949999999999584 -0.1 0  0.9999999999997226 -0.1 0  1.049999999999861 -0.1 0  1.1 -0.0500000000000906 0  1.1 -1.730560139634463e-13 0  1.1 0.04999999999975802 0  1.1 0.09999999999961506 0  1.1 0.1499999999994613 0  1.1 0.199999999999302 0  1.1 0.2499999999991446 0  1.1 0.2999999999990088 0  1.1 0.3499999999988296 0  1.1 0.3999999999986936 0  1.1 0.4499999999985143 0  1.1 0.4999999999984002 0  1.1 0.5499999999985247 0  1.1 0.5999999999986493 0  1.1 0.6499999999987955 0  1.1 0.6999999999989417 0  1.1 0.7499999999990659 0  1.1 0.7999999999992116 0  1.1 0.8499999999993573 0  1.1 0.8999999999994526 0  1.1 0.949999999999584 0  1.1 0.9999999999997226 0  1.1 1.049999999999861 0  1.05000000000004 1.1 0  1.000000000000079 1.1 0  0.9500000000001624 1.1 0  0.9000000000003032 1.1 0  0.850000000000444 1.1 0  0.8000000000005848 1.1 0  0.7500000000007256 1.1 0  0.7000000000008665 1.1 0  0.6500000000010508 1.1 0  0.6000000000012352 1.1 0  0.5500000000014196 1.1 0  0.500000000001539 1.1 0  0.4500000000014195 1.1 0  0.4000000000013 1.1 0  0.3500000000011588 1.1 0  0.3000000000010178 1.1 0  0.2500000000008986 1.1 0  0.2000000000007579 1.1 0  0.1500000000006174 1.1 0  0.1000000000005272 1.1 0  0.05000000000040083 1.1 0  2.671196597248127e-13 1.1 0  -0.0499999999998666 1.1 0  0.6616406058969643 0.7108299923572406 0  0.6863810480142685 0.7022225978593463 0  0.7093662501913178 0.6910107167896696 0  0.7299237204736069 0.6769249692396713 0  0.7482194924802399 0.6604346555191705 0  0.763676008461214 0.6412554104401523 0  0.7764691394972638 0.6200323836014902 0  0.7866284471348165 0.5972047908081164 0  0.7944736510311426 0.5732382844168028 0  0.8000733839920143 0.5484661119492524 0  0.8033671482782957 0.5234761904492556 0  0.8045886217789193 0.498321740782755 0  0.803628019341691 0.4732891088313462 0  0.8003364832149761 0.4485887769228277 0  0.7946773134650472 0.4247276448367475 0  0.7870256888167315 0.4018601042796692 0  0.7768876599345065 0.3803926178314883 0  0.7643698345434421 0.3606357193195596 0  0.7496699521702345 0.3427335578676266 0  0.7326635863261645 0.3268978027280369 0  0.713335928120765 0.3125177177823184 0  0.6910530159333561 0.3005745753612949 0  0.6661194995018315 0.2910075439505837 0  0.6394840189428092 0.2842374437147462 0  0.6114513842301689 0.2797432902042022 0  0.5826715664926052 0.2768054365025818 0  0.5526748578405609 0.2750903414203011 0  0.5226355864497723 0.2743109785888788 0  0.4928109084122814 0.2738920698198427 0  0.4629231029469123 0.273595864347521 0  0.4332997293819325 0.2735497023416273 0  0.4039538167099831 0.2745134475193591 0  0.3766666244967509 0.2770382922620872 0  0.3515608236887605 0.2815896157345125 0  0.3280037860685887 0.2879551481282623 0  0.3073795300369518 0.2960912244416875 0  0.288789982679982 0.3062134987670271 0  0.2720699795177506 0.3183512634221511 0  0.2571714820249585 0.3325616286070905 0  0.244015400891465 0.3489535030180096 0  0.2325278551138823 0.367312956623171 0  0.2220649252765728 0.3884445824796421 0  0.2128886220350128 0.4121107297594527 0  0.2056356248674355 0.438001436801781 0  0.2007967030753178 0.465317229557803 0  0.1983016334542398 0.4928893631006639 0  0.1983727002948373 0.5212589682630409 0  0.2023841286480514 0.5490032007645569 0  0.2092040582200946 0.5759915424605955 0  0.2190870316226743 0.6016870892075968 0  0.2313640694316511 0.6242978881217311 0  0.2449806414325642 0.644163511670392 0  0.2593791358985256 0.661165750640057 0  0.2747303599067479 0.6759392965443615 0  0.2915054946424021 0.6887391848140393 0  0.3101251843801956 0.6998276612743688 0  0.3308364022052311 0.7090212182497438 0  0.3535272722017807 0.716165116066221 0  0.3781952528303296 0.7213147450337161 0  0.4051438280484948 0.7242810939086585 0  0.4331023287255162 0.7262147250482643 0  0.461980768764809 0.7269336654489673 0  0.4912676679494997 0.7269719544802014 0  0.5207909460159897 0.7267271869936553 0  0.5502964192600874 0.726304784365387 0  0.5799075229490559 0.725558050256105 0  0.6084388686314984 0.7223598690331305 0  0.2666363804215572 0.6313632511700176 0  0.2462488703102442 0.3973914416928108 0  0.7492415271117021 0.6224248493838215 0  0.7787092580443452 0.533859095384059 0  0.6403360117251583 0.6964299692648728 0  0.619027965359588 0.2989348392003038 0  0.7225703922185154 0.3481292952051415 0  0.512894424627063 0.2911834424048564 0  0.2850093652619787 0.3468018169418282 0  0.3336765613795022 0.3119495766466855 0  0.4327132230513268 0.2981748182100016 0  0.3152036564183762 0.6732309038477097 0  0.376446695608337 0.6974626239814266 0  0.4537261497378703 0.7054538736359032 0  0.5366229838437587 0.7077663242213493 0  0.7669560258542616 0.4205439273626521 0  0.221903946730684 0.5528360751835014 0  0.2211947076195485 0.46385220637159 0  0.706308378597944 0.6680848213837477 0  0.3782147366171144 0.3003049294685199 0  0.7769399827768475 0.4659704596065712 0  0.5909479537717958 0.7050650320915638 0  0.7680655158871427 0.5775648327548843 0  0.7480953315506518 0.3814496346333807 0  0.6870348867767578 0.3207378653940768 0  0.5708629973482978 0.2911867856694439 0  0.2401653597486803 0.5968081691191282 0  0.2136462147663885 0.5062254263995533 0  0.4818496931278606 0.7067852101534173 0  0.4749404458358069 0.684777146424666 0  0.4463919647599146 0.6829772475396009 0  0.467868553205903 0.6617589814143824 0  0.4372559481173218 0.6593937810816876 0  0.454983347610696 0.6407467491470465 0  0.4815004665337063 0.6356707081723327 0  0.4287789015372566 0.6340650691831441 0  0.4522545716557699 0.6075470213610046 0  0.4107516472991064 0.6049336203908372 0  0.501707484125298 0.6005214989207713 0  0.542511846595585 0.6291293235413474 0  0.5497864705792599 0.582156432528442 0  0.5849824095179879 0.6157909242411874 0  0.5967694253886675 0.5690522724770539 0  0.6304061117865921 0.6020718413037214 0  0.6435258697398809 0.5551864528215109 0  0.6786917314405604 0.5834784023421135 0  0.6920218888168622 0.5471437757205175 0  0.6572074888561512 0.519970177347206 0  0.6988611502321788 0.5167906418423938 0  0.676991856068157 0.4867628275983072 0  0.627981830630685 0.4947511601366619 0  0.6421138609875946 0.4593410752293367 0  0.6901804506337538 0.4472628098345867 0  0.6605709056487309 0.420733608089457 0  0.6114689136261495 0.4308795147564681 0  0.6263826449880625 0.3973594862483134 0  0.5808181380787293 0.4029037086083477 0  0.5994065043058719 0.3686255309819647 0  0.5486156310342841 0.369162495575013 0  0.5352974941158151 0.4056603405715639 0  0.5011584004826511 0.3693095101115431 0  0.4879731671096129 0.4088483415243711 0  0.4528085655600694 0.3705908364684034 0  0.4407447169653372 0.4103399994629308 0  0.663438944256893 0.61
[...]
<PointData  Scalars="v"> 
<DataArray  type="Float64"  Name="v"  format="ascii">5.9624651683990174e-20  1.2769383666562313e-19  6.0254876292804338e-20  2.6031525924878231e-21  -1.0181100434583627e-21  -3.5101440715672349e-21  -3.5371858357004622e-22  -7.5644452919370050e-21  -5.9315422995136638e-06  9.1995092529639810e-06  -7.2914494903818200e-20  6.0364270967535899e-19  7.3405922159208272e-19  -3.7109535041284314e-19  1.8489812821088836e-18  1.5703412638640643e-18  -8.6970392260062788e-19  4.2285291978773151e-19  -1.5659446973995922e-19  1.0135247477222028e-19  1.4853435051269396e-18  5.5158276266880180e-19  -4.9875589915245107e-19  9.1706324627468213e-19  -1.3491927291464518e-18  2.7353771247130309e-19  6.3426851680607659e-19  6.5293476589754952e-19  -2.6966812782486286e-19  3.9769347639957685e-19  3.8639756871885023e-19  2.4058991265324657e-19  -2.0068344942685304e-19  6.0862496948510779e-19  -1.6210373644023681e-19  -2.3758531283755783e-18  -2.2616950976494035e-18  1.0690733746138293e-18  1.2634936654819821e-18  1.0991378253710737e-18  -7.0303421241754260e-20  7.3936144728427025e-19  8.8470734875103207e-19  5.7473650116453262e-19  7.0425333002339662e-19  1.5412450443431411e-19  3.6728329566924518e-19  -1.6201704100510143e-19  1.6596720830118239e-20  -1.4395313837526696e-19  4.5947618074770773e-19  3.4389785926121444e-18  -4.2840015922481398e-18  -4.3346500933624970e-20  1.1452253623174455e-18  3.6920938858713312e-19  -6.9861191934588295e-18  5.8192062769456647e-19  8.7053696172665095e-18  1.0640792678309565e-18  -2.1371217953579996e-18  -6.6220372406521795e-19  6.5363879501592557e-19  -3.4223214468211216e-18  -1.3695610863627153e-19  -1.0249434339293015e-19  8.9061683455919221e-19  -1.0393370726612653e-20  1.7658093927398583e-18  2.9269709018859511e-19  -3.1157945867399816e-18  2.1356183363314165e-19  3.9723431062987007e-19  3.7290716294508863e-20  6.5264613608947079e-18  -5.5041987269643200e-18  -6.3652973438945727e-18  5.0158437901404289e-18  -6.0834183528974240e-19  -5.6039997056440647e-18  -5.1957144069816665e-18  3.1624008996724044e-18  -2.4831436199696069e-19  2.5458285545762704e-19  -8.0741445986444010e-19  -6.7632621366426620e-19  6.3827417119944082e-21  3.8998328512019966e-21  8.4432212489859256e-21  8.3980312213875134e-20  5.8891742576314951e-20  2.6935791831303801e-20  2.0132456808123945e-19  7.9197846436053759e-20  -2.5888991611878905e-20  -2.0091710389259421e-20  3.4731137572226979e-20  5.1280073713269760e-20  1.9215911278921242e-19  4.1317408278158588e-20  6.8846360178060360e-20  8.8591118925232700e-20  -1.3586684609892135e-19  -4.5753773286208906e-20  1.1145037636123027e-19  7.6620296405705173e-20  -1.7547464327159083e-21  -1.3270726194580536e-20  9.1943209798983503e-21  -1.9708668465243736e-21  8.5033418445635777e-21  4.7456041659674704e-20  6.0097706852582024e-20  2.0593330786485501e-20  -1.5504011882288945e-20  6.5560497084324822e-20  -8.5071487399366769e-20  -3.4590968994084009e-19  -2.8162272610819994e-19  9.7226785101995148e-20  2.1231022617200927e-19  8.1082943192317034e-20  4.0493274376340015e-20  8.9964084865441434e-20  7.6223303386421968e-20  8.4084157347822024e-20  8.3925305495567724e-20  4.5981798865193094e-20  2.7062515634301122e-20  -7.2791064949284303e-22  -1.1115898504258676e-20  4.1940461764848442e-21  -1.0340615824192594e-21  2.9475389967913446e-21  -3.4794089305585967e-21  1.5376598865393351e-20  7.7898714347667430e-20  5.9820865253735464e-20  -5.8352959572490481e-20  -1.4986473629300306e-20  5.6315753941800968e-20  6.7951374226190835e-20  3.0366653681881266e-20  -2.6418700519501733e-20  2.0791431110866162e-20  8.8903340548136395e-20  -8.9721036773179408e-20  -1.3334086523998329e-20  9.0876873946312251e-20  6.1523328340678473e-20  -1.4789017937508279e-20  -1.8586149009429228e-20  -3.1908796925459111e-21  1.0453413075255884e-22  1.5505800296050477e-22  1.0566606024505170e-21  -3.6896301617721260e-21  4.8951057394291683e-21  3.3952849620081224e-20  4.5103074142464754e-20  3.0556492655407689e-20  3.4120670370071566e-20  4.5616739477888141e-20  2.7276621313117429e-20  7.8789774606169949e-21  1.2821951503919987e-20  -1.5434555130965439e-20  -5.1393901301822804e-20  4.3171812022862663e-20  2.6867900485945419e-20  -5.9544588760941078e-20  -3.2081787348520140e-20  1.2959702013154308e-20  4.1892518773360599e-20  3.5707186972381512e-20  1.4923806665769374e-21  5.6535418076742954e-21  6.3169340869022257e-21  1.0991662509834679e-05  1.4199542997651126e-05  1.6434797188928668e-05  1.8524447437514022e-05  1.7035321504194675e-05  1.4977061373556042e-05  1.2081076408345283e-05  8.5394969281520602e-06  5.9425227424428102e-06  3.8755112507593188e-06  2.8174513077278649e-06  2.5965404752215178e-06  2.7284108182088127e-06  4.2601739548361330e-06  7.4805873979888338e-06  1.0478418986929509e-05  1.3866682175152850e-05  1.7445635908191857e-05  2.0475733263824534e-05  2.2515899709496057e-05  1.9705814111558700e-05  1.7315586268688022e-05  1.1853452939643912e-05  7.2601049291879682e-06  3.3191692389679112e-06  -7.7671975580651290e-07  -3.7729467447264672e-06  -5.9307602000215414e-06  -7.1522769839953867e-06  -7.8752564049056608e-06  -7.3015580095541469e-06  -4.5700158947341291e-06  -2.1958521499202005e-06  1.1693922912625536e-06  6.1316592536746198e-06  1.1323618015842590e-05  1.6360119493163502e-05  2.1656879591172851e-05  2.6615408752334424e-05  3.0567731884296366e-05  3.3162380074292695e-05  3.5341374244851295e-05  3.6859457380687199e-05  3.7810097885569474e-05  4.0156477537884303e-05  4.2874642983742363e-05  4.6887282747854115e-05  5.2164004630215249e-05  5.8259098874670345e-05  6.4986808096070234e-05  7.0694203162966876e-05  7.3141067058583658e-05  7.3848768456017896e-05  7.1758359968565209e-05  6.6720152540928522e-05  5.9979518027780505e-05  5.1812950702411277e-05  4.4523987421735902e-05  3.6870784767711750e-05  2.9834102186281795e-05  2.2747726050941500e-05  1.7169428895758631e-05  1.2941420601628265e-05  9.8130759389660621e-06  8.1624576488290783e-06  6.9000509512089587e-06  8.1013048969903482e-06  6.3401793873513055e-05  3.0809233754719543e-05  9.2976659221147439e-06  -1.9403900125671181e-06  3.5981615983344928e-06  -5.7572398482055578e-07  1.3042031287146952e-05  -1.6125984850096375e-05  1.9795968016017082e-05  6.9912871469311357e-06  -8.2215237220923590e-06  5.5812395597968216e-05  3.7092498237001959e-05  1.3626135508247685e-05  3.9427120517635382e-07  6.9385277583662713e-06  5.1950505059345822e-05  3.6986627833981203e-05  1.0832205789142994e-05  -1.7231626365378046e-06  3.1826962830910961e-06  -1.6538796902384431e-06  5.2785858534712112e-06  1.0981499390571773e-05  1.1564840164927672e-05  -1.3399434422347706e-05  6.1154895010860324e-05  4.3365898434431807e-05  7.7671325402006507e-06  1.2221354440912610e-05  1.8250457998869539e-05  1.2062139975148321e-05  1.8943516255753060e-05  1.3334448094935402e-05  6.8031782160927968e-06  1.9632478410677960e-05  1.0964797038968422e-05  2.2565163008271112e-05  1.2600082110114816e-06  -1.5881123218122904e-06  -3.7858018651300345e-06  -2.8675118276085164e-06  -4.9076704808414994e-06  -2.3970155769207467e-06  -3.7667086288745444e-06  1.1680443394033563e-06  -6.7600013555257341e-07  -3.9117004132055849e-06  -1.6484353293789205e-06  -2.9259575577660834e-06  -6.0320797966784490e-06  -5.1802528300909311e-06  -3.9268270708634063e-07  -9.2897580001083705e-07  -6.4758975228148315e-06  -3.8660204580514541e-06  -8.3410615668936276e-06  -6.0835350982889436e-06  -1.0345356593117783e-05  -1.0473107412507318e-05  -1.2358471201547601e-05  -1.0216072042458628e-05  -1.0304375455116287e-05  -5.4661949239049105e-06  3.3876789360491749e-06  -3.8568785978836176e-06  1.3118966468842558e-06  -6.7807823335467180e-06  3.0504262878937759e-05  3.4058596219378256e-05  2.3039533985151395e-05  3.2111366489409998e-05  2.1516144333539083e-05  3.0982424802971576e-05  4.0596676846602056e-05  3.8075993617118072e-05  3.0102032774718666e-05  3.4118450343644999e-05  2.7690965827004718e-05  4.1805588412962706e-05  1.3322808621503468e-06  2.2848683192532097e-05  2.2032548436289535e-05  1.2549826698761703e-05  1.0161994053446939e-06  3.9247896144782389e-05  4.5447901094480642e-05  5.0125255710542976e-05  3.9794921769975822e-06  2.8914225437087117e-06  1.0812011915386464e-08  -1.0695856535750511e-05  8.1911075659982161e-06  9.8878456833378520e-06  1.7870748823283214e-06  -7.3206800350919630e-06  -1.4832228120199307e-07  1.3481869047318077e-05  8.9781611726200629e-06  2.5227043709926416e-05  4.4063376916899711e-05  4.1932269665546625e-05  -1.2343562536354314e-07  2.5189926957236357e-06  2.8188410135003086e-05  2.3826052351472751e-05  1.8870535083886734e-06  6.0202762769253993e-06  4.6101168335482019e-06  1.8838205158967354e-06  7.3936462584956910e-06  6.3379746173593654e-06  5.1343942934732694e-06  -2.0705776735953565e-06  -4.3061540649463126e-06  -7.6484192655362991e-06  -1.0718632044034585e-05  -1.0662016257252186e-05  5.3434585034080485e-06  5.3789811462641960e-06  6.5314743028631895e-06  5.4203604653224331e-06  -9.1772096760378632e-06  8.6517446588929850e-06  4.3473626846232787e-05  5.3931531621417355e-05  5.0945648604918005e-05  5.8602640377375028e-05  5.2298758214228998e-05  -1.1437606122674742e-06  2.0827006282493396e-08  2.1747295485110410e-06  4.2107200634642826e-05  3.7767445774071430e-05  3.0132967577106238e-06  3.0330757845881531e-06  -1.0864638986541493e-05  3.3012027761999766e-05  1.7710522120514874e-07  3.2480044158471673e-06  3.4178439933831889e-07  2.5764878665359770e-05  9.6642996833805547e-06  3.3594556640925787e-05  4.7753744498021800e-05  5.5496587486568486e-05  1.7666633562354808e-05  -7.0090945616977252e-06  2.7828270060136260e-05  2.3981831308944652e-05  -7.8868328950978213e-06  2.1024949489445720e-05  1.3943245481506606e-05  3.6581147043446722e-05  2.0889108501238707e-05  5.6668352828845825e-05  1.1634711708750952e-05  -1.9428914386264643e-05  6.2381739340978981e-05  4.4600486263864020e-05  8.3871599316542537e-06  7.0497153502933305e-06  4.0321933159286366e-06  4.6984409188697370e-06  -8.3294368263570972e-07  4.7763694809479879e-05  1.6070331636996921e-05  -1.1390490142017272e-05  -1.6212059334451659e-05  -4.6039448772570111e-06  -4.0202378668238107e-06  5.9795791279928299e-05  1.9513130857236228e-05  5.0585196787080139e-05  4.9551278369099710e-05  1.9753935918827209e-06  1.0906528664581776e-06  -1.9726137203368055e-06  1.4046828799393751e-06  2.9213382459431289e-05  4.1740931819918203e-08  6.6088697109996124e-06  9.2090582394221293e-06  6.3139595619103172e-05  1.3888534498319763e-06  3.8502199509244498e-06  3.8749793801929773e-06  1.2429984576481014e-05  7.4165505725883712e-06  2.7773842120965878e-06  4.9930307995334104e-06  -1.9174034856783754e-06  9.1805926758112505e-06  -6.2080864239882226e-06  -1.4227117720296892e-05  2.6956527090021528e-07  9.8789827105091718e-06  6.8148443663306052e-06  -9.7853073291848725e-06  5.9559601065527913e-05  -9.5668753494312296e-06  -7.1060314622127783e-06  -6.0528830672645006e-07  1.2671367610331799e-05  3.8321898352181538e-05  1.1112830222249109e-05  3.9392375016386975e-06  7.4748608877288942e-06  3.3874039845327756e-05  -9.4439222849113052e-06  4.4080692850864080e-06  -5.5684403549424364e-06  5.8033965485800627e-05  -3.2878098946992742e-06  -1.0619285469261110e-06  -8.3049335205278815e-06  4.3465445638430994e-05  5.4417256415180590e-05  1.3824154914151794e-06  2.3579952002648901e-06  9.3638332255583215e-06  3.2163162281255948e-05  -7.5204165619610803e-06  3.1452570443143545e-06  7.9722593546292723e-06  3.9361653496201134e-05  -5.5136223109072774e-07  7.6138269436198984e-06  3.0564574374555670e-05  3.0294088244068901e-06  1.9142084391669426e-06  9.2597792296162611e-06  1.5185957766346294e-05  4.9305953730223802e-06  1.2904655342660303e-05  8.0088839750502397e-06  2.7733108906512989e-05  9.9388427094497163e-06  -9.0292684987748386e-06  -9.7627868155652421e-06  1.7611534259369046e-05  -9.9430846353946648e-06  5.9766572156518341e-05  3.3954641086669823e-06  3.7980429507161342e-06  -1.0076817028133691e-05  5.8030284374537703e-05  4.2157738695177823e-06  9.0090573180142495e-07  -1.9554774395446919e-06  -6.3111369702475484e-06  3.9131850210186024e-06  -2.5091121234391327e-06  9.8558574666667077e-06  7.7928770357912230e-06  1.6991204881264184e-06  5.6250857148046095e-06  7.3212630836797741e-06  -9.1656514995726922e-06  7.7577980357654256e-07  -1.0531849791407786e-05  3.8146770113342770e-05  -7.1990124806548441e-06  3.3806271474029062e-05  -1.3720213803276796e-05  5.5379327268537844e-05  6.7642860536431029e-06  5.3949119322186763e-05  5.0790562300811670e-06  4.2307947288083919e-07  2.9648334700061806e-05  1.7183802758485102e-06  2.1208016569546863e-06  8.9279918769681456e-06  4.6815381771991610e-06  2.5791782769176095e-05  -2.5205569572913459e-07  4.7105062563305587e-05  6.3404936743725152e-06  2.7649824490694279e-06  6.8821760373800901e-06  1.1186644903262018e-06  1.8748141793268903e-05  6.5035920068289992e-05  1.8812809596637504e-05  1.6320855986523141e-05  1.5225974747663194e-05  5.5262386502510546e-06  4.8236616619640077e-05  1.2627827896879368e-05  2.9975982403536877e-05  2.7792612341142562e-05  1.5238332392647573e-05  6.7515286088898035e-05  -3.5205688671521145e-06  1.3889295855861220e-05  1.0882742815452803e-05  4.9974745922185330e-06  5.7632388124444059e-06  4.2374482085605095e-06  1.0597276473408539e-05  1.0690060837337515e-05  6.4530139780907845e-06  6.4089228193102017e-06  -4.3690890824964324e-07  7.7040182020198960e-06  1.4445952304548935e-05  5.1868402714956550e-06  5.6674216678901589e-06  -4.9136628188971939e-06  7.0422043364703927e-06  1.0493744111809565e-05  6.0876299650761247e-05  3.6035587617423703e-05  9.2799860950159676e-06  6.0594431091962672e-06  4.9882211179357328e-06  3.1569645774038871e-06  6.6816050589276112e-06  3.9798310673372027e-06  8.5440830077661675e-06  4.3144533889183013e-06  1.6901546289212186e-05  7.3824363311571284e-06  7.1233554407579280e-06  4.0555146376058607e-05  3.3890809901778834e-06  2.1393548264824950e-06  2.0153075433749691e-06  4.9254522111354069e-05  6.1192073094106542e-06  2.0309146753979396e-05  9.7467207748554952e-06  4.9708672343935252e-06  1.3812548096498923e-05  4.2120504548125273e-06  5.6631483386013754e-06  1.8823615186026401e-05  8.5678387912781590e-06  4.7640076708876394e-06  2.7409224086813244e-06  3.0505954759507494e-06  4.3239281524761000e-05  3.9606991344231253e-05  4.1525677719369739e-05  3.6699299461698144e-05  3.5561046696350509e-05  3.7629592319495706e-05  3.1139500656986200e-05  4.2819152778284684e-05  3.7431640691581739e-05  4.2834621695514124e-05  5.3044998026220812e-05  1.0127280967041679e-05  1.3098641187389664e-05  1.5692490634965559e-05  1.5487208614816356e-05  1.7460940350681103e-05  1.3137342690217521e-05  1.7462860262064088e-05  1.9214115541202842e-05  1.8607042085201216e-05  1.9904121388027950e-05  2.0303051781098779e-05  2.0278424369688930e-05  2.0140512671034260e-05  1.9403675392574025e-05  1.9390883562315620e-05  1.8731701012420659e-05  1.7176302508037364e-05  1.7261298586731471e-05  1.6059664661762589e-05  1.6914545003917729e-05  1.3994303903600825e-05  1.4401679322188532e-05  1.1689872768101923e-05  1.6596200571525881e-05  1.7161111815937596e-05  1.1644871035293264e-05  9.4095135208382511e-06  1.3807570486635366e-05  1.5295184501407833e-05  9.0480892508112013e-06  1.9900589706900173e-05  1.6702251484327260e-05  7.1291045761863258e-06  7.2391919446381009e-06  5.8694470859396658e-06  5.9487082512843785e-06  5.4757254768783558e-06  5.4939462133856345e-06  5.7453273546302558e-06  6.0277678506911206e-06  6.7315675792447166e-06  7.5607696242173847e-06  8.2199835834271404e-06  9.5319905084625150e-06  9.7314302917915256e-06  1.1735574383568066e-05  1.1474522125913386e-05  1.3914795829436874e-05  1.3073131524456306e-05  1.5432724881838745e-05  1.3958980486090335e-05  1.6317930492282180e-05  1.7008299270682817e-05  1.7595328490289813e-05  1.6333520912840404e-05  1.7013787779557619e-05  1.7735229476594203e-05  1.6648647196101941e-05  1.6794265449743253e-05  1.5124639550456828e-05  1.5578994414471156e-05  1.5624165041480341e-05  1.4641810025246650e-05  1.3635927794466489e-05  1.2277377714135818e-05  1.4376966389783605e-05  1.4316620081967791e-05  1.7133685410022884e-05  1.4448895482847765e-05  1.3120369145487017e-05  1.3244875462413478e-05  1.2770621012888553e-05  1.2791372224217469e-05  1.2738641809388217e-05  1.1905724026222726e-05  1.2743681787692847e-05  1.3254088780406853e-05  1.4778290649919300e-05  1.4379374360505575e-05  1.6992465031404551e-05  1.6937391505403970e-05  2.1110908900554571e-05  1.9546200603881798e-05  2.4678873802435712e-05  2.1876226498548187e-05  2.7889688749681620e-05  3.0791955988075415e-05  3.4879480628976637e-05  3.0340668126836382e-05  3.7519928661163788e-05  4.2270165803249270e-05  4.4459099112344866e-05  3.8355529489224561e-05  4.4405489460731263e-05  5.0828660016201573e-05  4.9974794169857182e-05  4.2401716276207755e-05  4.6504369981116504e-05  5.3770312515292041e-05  3.8385430369090489e-05  4.8324310273539121e-05  5.4958351287562703e-05  4.7523258940778947e-05  5.3558018245439384e-05  5.9681055230754201e-05  3.8973536509654250e-05  3.3994777329956296e-05  2.9362005177344143e-05  1.3438508013124059e-05  4.3949883411890409e-05  5.1107793475152212e-05  1.4706906746642509e-05  5.7472776050688468e-05  5.2854724981849638e-05  4.5612378258743294e-05  4.5424741261613213e-06  6.0410350189809943e-05  1.6640687864390393e-05  3.2281627895757908e-05  1.2294409642596050e-05  1.2896885964884201e-05  1.9937787923159629e-05  1.2784886393594567e-05  1.0858031287333672e-05  4.6781765880814272e-05  8.2944017640550324e-06  2.3638268444517798e-05  6.6209523897556362e-06  1.2191356203699084e-05  1.6626603734202862e-05  1.7701259050838579e-05  9.5373008135704780e-06  7.1601530581100349e-06  1.1359870260275180e-05  1.0833101038254309e-05  1.1763387850151503e-05  1.4181014707702162e-05  1.2966888574710815e-05  1.1324397995072586e-05  1.0590437709399781e-05  8.5415356208450165e-06  7.3837810066781882e-06  5.1095746197872465e-06  6.2371949074616817e-06  3.1424494402877798e-06  4.6684956743134653e-06  2.5010166445133800e-06  4.4877080212396312e-07  -4.2513895754151847e-07  2.1411218742921790e-06  3.5346111100610218e-07  -2.0056367575902720e-06  -3.8106220593807973e-07  1.8062948534558276e-06  2.5183812369204025e-06  8.1594050439767420e-07  3.9757662682725313e-06  5.1914288768723585e-06  7.1125211436896799e-06  7.5955982926500460e-06  9.9531468123320357e-06  9.8459382305142947e-06  1.3103705478829121e-05  1.2472119335333036e-05  1.5400768646624870e-05  1.6646440811260886e-05  1.7857327071389400e-05  1.9908774063304339e-05  1.9863408589753549e-05  1.6022467947614214e-05  2.2509570873605591e-05  2.1099099464896957e-05  2.4268700019462652e-05  2.2171494857507106e-05  1.7972679695574499e-05  2.4345078220928504e-06  5.8106586546334606e-06  7.5821070002273273e-06  2.1247493513261892e-05  2.5330604152081983e-05  2.7735646929331128e-05  2.9100033045857584e-05  3.0618215536648734e-05  2.6360025163547249e-05  3.0535198432856604e-05  -4.2757395001615619e-07  1.7584773556429720e-06  4.6960420019709283e-06  2.9101137346744280e-05  5.5783973598408712e-05  5.7139159837533322e-06  1.4017418724791775e-05  3.1890770419026292e-05  1.5993287649020862e-05  3.7432589751349105e-05  8.8069283614083234e-06  5.9360424858387230e-06  3.1647841623528313e-05  1.4072948194200455e-05  2.6302502492576879e-05  5.4408793862576245e-06  6.6505064720898040e-06  7.2221541699737577e-06  1.9923516447333157e-05  4.1202942497483756e-06  1.0567967383364009e-05  1.6462921515239424e-05  1.5595096159156757e-05  1.6205658538217509e-05  1.4331547474326895e-05  1.5225400458423714e-05  5.4905155000016976e-06  6.2412137769659797e-06  9.0242628171056795e-06  -2.0556177038167373e-06  -3.9955327050109425e-06  9.7476555089862672e-06  2.4019440336877314e-05  2.8658377977860307e-05  1.1275848703085184e-05  1.2923686421599456e-05  1.5258035687886994e-05  1.5780627988098814e-05  2.3058038117649101e-05  1.4839279404572088e-05  1.23663