<?xml version="1.0"?>
<VTKFile type="UnstructuredGrid"  version="0.1"  >
<UnstructuredGrid>
<Piece  NumberOfPoints="1277" NumberOfCells="2456">
<Points>
<DataArray  type="Float64"  NumberOfComponents="3"  format="ascii">0 0 0  0 1 0  1 1 0  1 0 0  1.1 -0.1 0  -0.1 -0.1 0  1.1 1.1 0  -0.1 1.1 0  0.5070752170906209 0.5045048011819623 0  0.6304269327144455 0.7150690033176961 0  0 0.9499999999997918 0  0 0.8999999999995836 0  0 0.8499999999996529 0  0 0.7999999999999998 0  0 0.7500000000003466 0  0 0.7000000000006934 0  0 0.6500000000010401 0  0 0.6000000000013869 0  0 0.5500000000017335 0  0 0.5000000000020587 0  0 0.4500000000018723 0  0 0.4000000000016644 0  0 0.3500000000014564 0  0 0.3000000000012483 0  0 0.2500000000010403 0  0 0.2000000000008322 0  0 0.1500000000006241 0  0 0.100000000000416 0  0 0.05000000000020799 0  0.04999999999989965 0 0  0.09999999999981467 0 0  0.1499999999997036 0 0  0.1999999999995579 0 0  0.2499999999994121 0 0  0.2999999999992664 0 0  0.3499999999991206 0 0  0.3999999999989749 0 0  0.4499999999988292 0 0  0.4999999999986943 0 0  0.5499999999988151 0 0  0.5999999999989468 0 0  0.6499999999990784 0 0  0.69999999999921 0 0  0.7499999999993417 0 0  0.7999999999994734 0 0  0.8499999999996051 0 0  0.8999999999997368 0 0  0.9499999999998684 0 0  1 0.04999999999989965 0  1 0.09999999999981467 0  1 0.1499999999997036 0  1 0.1999999999995579 0  1 0.2499999999994121 0  1 0.2999999999992664 0  1 0.3499999999991206 0  1 0.3999999999989749 0  1 0.4499999999988292 0  1 0.4999999999986943 0  1 0.5499999999988151 0  1 0.5999999999989468 0  1 0.6499999999990784 0  1 0.69999999999921 0  1 0.7499999999993417 0  1 0.7999999999994734 0  1 0.8499999999996051 0  1 0.8999999999997368 0  1 0.9499999999998684 0  0.9499999999997918 1 0  0.8999999999995836 1 0  0.8499999999996529 1 0  0.7999999999999998 1 0  0.7500000000003466 1 0  0.7000000000006934 1 0  0.6500000000010401 1 0  0.6000000000013869 1 0  0.5500000000017335 1 0  0.5000000000020587 1 0  0.4500000000018723 1 0  0.4000000000016644 1 0  0.3500000000014564 1 0  0.3000000000012483 1 0  0.2500000000010403 1 0  0.2000000000008322 1 0  0.1500000000006241 1 0  0.100000000000416 1 0  0.05000000000020799 1 0  -0.1 1.05000000000004 0  -0.1 1.000000000000079 0  -0.1 0.9500000000001624 0  -0.1 0.9000000000003032 0  -0.1 0.850000000000444 0  -0.1 0.8000000000005848 0  -0.1 0.7500000000007256 0  -0.1 0.7000000000008665 0  -0.1 0.6500000000010508 0  -0.1 0.6000000000012352 0  -0.1 0.5500000000014196 0  -0.1 0.500000000001539 0  -0.1 0.4500000000014195 0  -0.1 0.4000000000013 0  -0.1 0.3500000000011588 0  -0.1 0.3000000000010178 0  -0.1 0.2500000000008986 0  -0.1 0.2000000000007579 0  -0.1 0.1500000000006174 0  -0.1 0.1000000000005272 0  -0.1 0.05000000000040083 0  -0.1 2.671196597248127e-13 0  -0.1 -0.0499999999998666 0  -0.0500000000000906 -0.1 0  -1.730560139634463e-13 -0.1 0  0.04999999999975802 -0.1 0  0.09999999999961506 -0.1 0  0.1499999999994613 -0.1 0  0.199999999999302 -0.1 0  0.2499999999991446 -0.1 0  0.2999999999990088 -0.1 0  0.3499999999988296 -0.1 0  0.3999999999986936 -0.1 0  0.4499999999985143 -0.1 0  0.4999999999984002 -0.1 0  0.5499999999985247 -0.1 0  0.5999999999986493 -0.1 0  0.6499999999987955 -0.1 0  0.6999999999989417 -0.1 0  0.7499999999990659 -0.1 0  0.7999999999992116 -0.1 0  0.8499999999993573 -0.1 0  0.8999999999994526 -0.1 0  0.949999999999584 -0.1 0  0.9999999999997226 -0.1 0  1.049999999999861 -0.1 0  1.1 -0.0500000000000906 0  1.1 -1.730560139634463e-13 0  1.1 0.04999999999975802 0  1.1 0.09999999999961506 0  1.1 0.1499999999994613 0  1.1 0.199999999999302 0  1.1 0.2499999999991446 0  1.1 0.2999999999990088 0  1.1 0.3499999999988296 0  1.1 0.3999999999986936 0  1.1 0.4499999999985143 0  1.1 0.4999999999984002 0  1.1 0.5499999999985247 0  1.1 0.5999999999986493 0  1.1 0.6499999999987955 0  1.1 0.6999999999989417 0  1.1 0.7499999999990659 0  1.1 0.7999999999992116 0  1.1 0.8499999999993573 0  1.1 0.8999999999994526 0  1.1 0.949999999999584 0  1.1 0.9999999999997226 0  1.1 1.049999999999861 0  1.05000000000004 1.1 0  1.000000000000079 1.1 0  0.9500000000001624 1.1 0  0.9000000000003032 1.1 0  0.850000000000444 1.1 0  0.8000000000005848 1.1 0  0.7500000000007256 1.1 0  0.7000000000008665 1.1 0  0.6500000000010508 1.1 0  0.6000000000012352 1.1 0  0.5500000000014196 1.1 0  0.500000000001539 1.1 0  0.4500000000014195 1.1 0  0.4000000000013 1.1 0  0.3500000000011588 1.1 0  0.3000000000010178 1.1 0  0.2500000000008986 1.1 0  0.2000000000007579 1.1 0  0.1500000000006174 1.1 0  0.1000000000005272 1.1 0  0.05000000000040083 1.1 0  2.671196597248127e-13 1.1 0  -0.0499999999998666 1.1 0  0.6568193695915174 0.7081308329361505 0  0.6821540815650765 0.6991641492458929 0  0.7060024566813879 0.6878078165172102 0  0.727866333345963 0.6738951277503411 0  0.7475105298656433 0.6575288054693362 0  0.7640678626928641 0.6385090575855122 0  0.7775328178790774 0.617415502290912 0  0.7884405236499843 0.5949755317158125 0  0.7970000009978547 0.5715265970381261 0  0.8030827441150759 0.5473367382294009 0  0.8067345629980909 0.5229083201462111 0  0.8081438840907098 0.4983364366903159 0  0.8070275853432863 0.4738928255677435 0  0.803431674155468 0.4498595701622528 0  0.7973505393000145 0.4265160473623441 0  0.7888191140394264 0.4042109705901968 0  0.7777737876042793 0.3831820961091578 0  0.7642763039674092 0.363671376755742 0  0.7485252301179658 0.3458050749699608 0  0.7304672163214619 0.3296737694587765 0  0.7099216564351895 0.3152278861131863 0  0.6870998498701504 0.3025670625607488 0  0.6618307281351828 0.2924188165702371 0  0.6353010637842583 0.2849322666965624 0  0.6076635952555594 0.2797806797460449 0  0.5793950183156249 0.2761585266199127 0  0.5501980234463548 0.2740428269497305 0  0.5210737713259812 0.2729492944029399 0  0.4921842571536026 0.2723390198807507 0  0.4632891995826036 0.2719607272731618 0  0.4346420306226641 0.2720684106782295 0  0.4062405010194924 0.2731897497043982 0  0.3795791596338502 0.2759611105201768 0  0.3549307754479127 0.280616615733452 0  0.3316356414787909 0.2871429190930749 0  0.3107688278463563 0.2952374218411123 0  0.2917300673274296 0.3055281742917182 0  0.2744818871487504 0.318103823485857 0  0.259009760441977 0.3328827206207618 0  0.245273533415615 0.3498601492871681 0  0.2331411472242567 0.3687690231836996 0  0.2219939077983067 0.3901870068902734 0  0.21208788828035 0.4138366523406202 0  0.203793490195163 0.4392608918854169 0  0.1977972453041631 0.4660113853073031 0  0.1944476069582037 0.493195828158499 0  0.1944423148711644 0.5211271750388736 0  0.1991076830921623 0.5485788410471172 0  0.2072702975741035 0.5750435370666461 0  0.2185223596157161 0.6001613462827733 0  0.2319386291353828 0.6228120907338455 0  0.2467510192291582 0.6430124575116335 0  0.262143189285967 0.6607290280436202 0  0.2783572694329084 0.6763518441154303 0  0.295855955721025 0.6899060542487351 0  0.3149555262196431 0.701477107447258 0  0.3357569502732476 0.7109846222362284 0  0.3581114844178789 0.7185184068370883 0  0.3821438633062516 0.7240601154505054 0  0.4080253746157823 0.7276737689830625 0  0.4348744039772547 0.7296386301957278 0  0.4624608442070633 0.7301779479631963 0  0.490455367300049 0.7297623539105798 0  0.5187251875537013 0.728666478715731 0  0.5470308265496875 0.72706844924581 0  0.5754756917910862 0.7251166764973539 0  0.6034149144198406 0.7208283963616993 0  0.2680990948993951 0.6309224352641015 0  0.2462088446577622 0.3985242254302539 0  0.7495746650417601 0.6201354575390365 0  0.781190284182366 0.5330940180247099 0  0.6362772455262998 0.6942109111705359 0  0.6156760200334407 0.2993587709580146 0  0.7210598032039818 0.3505092377287484 0  0.5117550606497289 0.2901244094069402 0  0.2864670360997158 0.3468805608080042 0  0.3361450290509655 0.311417585631931 0  0.4337165316367594 0.2971873559522835 0  0.318467108246663 0.6743297469475041 0  0.3795504161324947 0.699555353051285 0  0.4543291655917642 0.7079669845668104 0  0.534158053278628 0.7086129534197266 0  0.7685324865684813 0.422274615671948 0  0.2195803003625214 0.5523056769942015 0  0.2189216177115038 0.4646912291159636 0  0.7041106340307198 0.6653341938265558 0  0.3804033841886125 0.2995564329985825 0  0.7793908131199477 0.4667148101038326 0  0.5870293424263748 0.7040783350971345 0  0.7697058081858171 0.5759119470025683 0  0.7482026836587584 0.3837794168109721 0  0.6839678991352852 0.3226542795703513 0  0.568239031214599 0.2906715914908052 0  0.239898838251596 0.5958235737020009 0  0.2104251509861594 0.5063921714065189 0  0.4813947714221563 0.7090002881880951 0  0.4746509308214367 0.6864414486429228 0  0.4469836687272533 0.6848713552098251 0  0.4676748639008759 0.6629909389786783 0  0.4378086131617787 0.6607850619877771 0  0.4549633085632181 0.6417173457787624 0  0.4809509169459379 0.6363276861387698 0  0.4291791270823702 0.6350418911879733 0  0.4520750857034904 0.6081412959412797 0  0.4110318508250556 0.6056267263465394 0  0.5009202997869975 0.6007013344248442 0  0.541090025744316 0.6289525928610235 0  0.5487824271978979 0.5818640388710603 0  0.5834651710627323 0.6150184760803273 0  0.5958850676287851 0.5684480141259748 0  0.6292259901997634 0.6009110994224521 0  0.6431128835581518 0.5544639476039023 0  0.6783524262579963 0.5822261159602552 0  0.6923418274773759 0.5463578026839845 0  0.6571806900142785 0.5196375280047344 0  0.699481099449513 0.5164554426100245 0  0.6772529791741262 0.4868635122855666 0  0.6276803078227295 0.494709767223421 0  0.6418176023420852 0.4596757939086742 0  0.6903847051466871 0.4479498014047805 0  0.6600600815312164 0.4215517212410882 0  0.6107463268605914 0.43129941935011 0  0.6253050916634294 0.3980700709442433 0  0.5798098442907401 0.4032551410192124 0  0.5978940659687576 0.3691285714760333 0  0.5474798838184406 0.3692446172628395 0  0.5344927852764469 0.4057921818095946 0  0.5005305648404866 0.3691856478672905 0  0.4874687097676173 0.4088925011964165 0  0.4527323315572466 0.370426071704179 0  0.4405372982381871 0.4103815108768197 0  0.6622368945115444 0
[...]
<PointData  Scalars="v"> 
<DataArray  type="Float64"  Name="v"  format="ascii">5.9650335620939299e-20  1.2761651743851585e-19  6.0361127194516045e-20  2.8495988035584111e-21  -1.0344722527650142e-21  -3.5099427423139145e-21  -3.5911914899831113e-22  -7.5610097542184096e-21  -1.3477665182286941e-05  2.6032062365383112e-05  -7.3017013837418369e-20  6.0398665040631605e-19  7.3356075235095918e-19  -3.6958318483739204e-19  1.8489752585131485e-18  1.5693841284056723e-18  -8.7160843297869194e-19  4.2080752588450269e-19  -1.5665802905157384e-19  1.0040614048685527e-19  1.4869391861494530e-18  5.5098680934025200e-19  -4.9923266627345521e-19  9.1771447704864700e-19  -1.3485350947678578e-18  2.7294481499425819e-19  6.3439780647635344e-19  6.5279896222945263e-19  -2.6954122855197061e-19  3.9775720405166426e-19  3.8630341360489842e-19  2.4105179356397415e-19  -2.0067578912074410e-19  6.0868364327937222e-19  -1.6192183747966926e-19  -2.3759045399649271e-18  -2.2616985879951926e-18  1.0693071128031463e-18  1.2635198282376835e-18  1.0982430302771041e-18  -7.2496652917648430e-20  7.3811199710914917e-19  8.8497603585063922e-19  5.7679746647897318e-19  7.0342589512136873e-19  1.5363551072131992e-19  3.6683088424484188e-19  -1.6303618081362903e-19  1.6511359706781493e-20  -1.4376864521490049e-19  4.6004109498915207e-19  3.4380377024247851e-18  -4.2859847654496254e-18  -4.2736289419134246e-20  1.1449640470685838e-18  3.6928885629846366e-19  -6.9859529915299198e-18  5.8226734032251240e-19  8.7049366902073840e-18  1.0638805934892710e-18  -2.1365254829466500e-18  -6.6261804118022667e-19  6.5351391410621147e-19  -3.4228933087357510e-18  -1.3635373030139938e-19  -1.0341590040635065e-19  8.9034206455350313e-19  -1.0403683099004040e-20  1.7652735287246338e-18  2.9271975406257114e-19  -3.1159007716352061e-18  2.1384543127907618e-19  3.9893516702205005e-19  3.7384467547402579e-20  6.5263889385075954e-18  -5.5035107820623846e-18  -6.3655100383697656e-18  5.0161201409073072e-18  -6.0875995166039597e-19  -5.6049617956956527e-18  -5.1953813374485035e-18  3.1625764683290604e-18  -2.4855787285682003e-19  2.5581128221024917e-19  -8.0675926414067047e-19  -6.7603141573126176e-19  6.3853991092160001e-21  3.8796524026824587e-21  8.4551038703683176e-21  8.4005681052619166e-20  5.8897492334938895e-20  2.7134420165366700e-20  2.0135872195671847e-19  7.9049140888880784e-20  -2.6175516135163586e-20  -2.0292325409187082e-20  3.4624461073320815e-20  5.1264142450355672e-20  1.9226938954061737e-19  4.1281317127377666e-20  6.8784740395982302e-20  8.8679684755169584e-20  -1.3579602739809983e-19  -4.5792315762231322e-20  1.1143340638355706e-19  7.6635053670395880e-20  -1.7617840223540137e-21  -1.3257430335450875e-20  9.1915954212769999e-21  -1.9717267677980250e-21  8.5103470508224524e-21  4.7457962775299715e-20  6.0088374858673638e-20  2.0627994384275456e-20  -1.5484605831494868e-20  6.5564669730013468e-20  -8.5042618559429118e-20  -3.4591250865907775e-19  -2.8162301973916795e-19  9.7265028093963970e-20  2.1228956212921307e-19  8.0918163084079854e-20  4.0213213646595202e-20  8.9745997688721491e-20  7.6366490556214872e-20  8.4308025914225386e-20  8.3912412740966714e-20  4.5882647386948950e-20  2.6978369346133657e-20  -8.3069050139098313e-22  -1.1117728286013477e-20  4.2141276614436821e-21  -1.0262358693733385e-21  2.9651743359443837e-21  -3.4855694258517962e-21  1.5417852179404018e-20  7.7944903664552470e-20  5.9698314379617012e-20  -5.8504062328511305e-20  -1.5005890343480792e-20  5.6340248300998407e-20  6.7937994815931361e-20  3.0399303686466453e-20  -2.6387991930099801e-20  2.0741536733613865e-20  8.8887627578877710e-20  -8.9681455388844086e-20  -1.3316965660286535e-20  9.0798456707631255e-20  6.1592092853805268e-20  -1.4769518597415675e-20  -1.8664061276531840e-20  -3.2528001618409989e-21  1.2158170530513832e-22  1.5866149453994773e-22  1.0598539146525146e-21  -3.6852979668076116e-21  4.8755029953847927e-21  3.3901629687824516e-20  4.5104469466099617e-20  3.0538481974935267e-20  3.4178939386390248e-20  4.5859413978296184e-20  2.7375782360372241e-20  7.8619399465644993e-21  1.2884529236236935e-20  -1.5421466125596576e-20  -5.1386722840649423e-20  4.3107291071187386e-20  2.6770609952432447e-20  -5.9558363238446803e-20  -3.2114993534420581e-20  1.3026784772067296e-20  4.2056008060849693e-20  3.5814265500802726e-20  1.5258343406833695e-21  5.6462633810412466e-21  6.3122535231634262e-21  3.2595068144426295e-05  3.7982530748309787e-05  4.0463459811474387e-05  4.2253092640054133e-05  3.8370142489438150e-05  3.3483272695067093e-05  2.7444143531669003e-05  2.0748107268136436e-05  1.5552722222927265e-05  1.1382573975847622e-05  9.1409263207624158e-06  8.1556700938422400e-06  8.2142353000366450e-06  1.0083780942006237e-05  1.5374013107750141e-05  2.0448521487367372e-05  2.6194812082285695e-05  3.2798807549095323e-05  3.8455114608034499e-05  4.2383442674559570e-05  3.9619996679744786e-05  3.6227066537170051e-05  2.8171497767122082e-05  1.9507526298015207e-05  1.1676218247687459e-05  3.8455358888890284e-06  -2.8659392842125178e-06  -8.2743078605322050e-06  -1.2514606679496353e-05  -1.5890320979027861e-05  -1.7460212596490907e-05  -1.6368390289610465e-05  -1.5397645722271614e-05  -1.3051795144373422e-05  -8.8044402873946497e-06  -4.0939317711570078e-06  1.0621965848976748e-06  6.1800334610050156e-06  1.0501644992867479e-05  1.3655660275657267e-05  1.4968433342259736e-05  1.5244101735747771e-05  1.4410978338410758e-05  1.3309508431681319e-05  1.4126702201669126e-05  1.5469429246124272e-05  1.9305038950620777e-05  2.5309870371408332e-05  3.1494032204860686e-05  4.0302784212364922e-05  4.8006029457784005e-05  5.1880718545140907e-05  5.3330274800790263e-05  5.1048828559941323e-05  4.5003275611421993e-05  3.7304319779984584e-05  2.8987179048031259e-05  2.2073617523703546e-05  1.5299881350988749e-05  1.0179111927687359e-05  5.3722053014694202e-06  3.3499044243569145e-06  3.6190698299401243e-06  5.4630099247327403e-06  9.2996251320397512e-06  1.3602008480069290e-05  1.9722013670105499e-05  3.8337120525065543e-05  8.1371959178996829e-06  2.6085915591916478e-05  4.2914493685189852e-06  2.3246535211459310e-05  9.8346686546040870e-06  2.8797298477458311e-05  -2.1298039140231294e-05  7.6482213822940544e-07  -9.5037297231709224e-06  -2.0444281609970141e-05  3.1721926609826984e-05  1.2261194304246942e-05  -5.3326592546602313e-06  -2.4509304855292419e-06  1.7130961792233252e-05  2.1122751001008345e-05  7.7085284781134145e-06  3.1304351121197761e-05  -1.6409999090761909e-05  9.9304390905298081e-06  8.7083727497144618e-06  1.6476240238408881e-05  2.4421813397099372e-05  2.7062121891036574e-05  -1.0518637901800560e-05  3.4718768031789956e-05  1.1149047589388018e-05  -6.7736374012297249e-06  -8.8377349371312476e-07  1.0696715135815127e-06  -2.6187828991550508e-06  1.6174043604462382e-07  -3.4229493295437363e-06  -5.7611560381281078e-06  -2.5227153482660693e-07  -5.2879239657789817e-06  1.5581263351836902e-06  -7.5104030111454484e-06  -3.0946520793289547e-06  -4.6847917205545398e-06  2.8962405095271236e-06  9.5867167824402447e-07  9.0269429360682224e-06  6.2917913653845313e-06  1.4994788352912330e-05  1.1048493036364702e-05  5.5903903391556682e-06  8.7674490990813800e-06  6.8945978250197656e-06  1.0819386093643800e-06  3.1969778609731881e-06  1.0168096648352492e-05  9.4591349614111929e-06  -1.0166924886588962e-07  4.8027495018402106e-06  -4.8783650449257075e-06  5.3806706061160292e-07  -1.0711963505002839e-05  -1.3060135749816030e-05  -1.9078621995211927e-05  -1.9081741936383261e-05  -2.2556133291773373e-05  -1.9845630696857662e-05  1.9330697893299059e-05  -2.0063403591188716e-05  -1.6880369117185155e-05  -3.8812996120622166e-06  7.3279284040135871e-06  9.7265421133941868e-06  7.4050664398343448e-07  6.9700077313097705e-06  -1.8081495773038344e-06  5.0154630585613805e-06  1.3666826175976138e-05  1.0470350385112978e-05  3.8830510174482073e-06  6.1206666575003332e-06  1.7277912182423019e-06  1.2599364014909625e-05  -1.5551798352468807e-05  -1.7505043588193948e-06  -1.8253805397724883e-06  -6.9897499130687328e-06  1.2685604167403441e-05  1.0665585641961299e-05  1.6457522135314431e-05  2.1445845580084283e-05  -1.4862669265562980e-05  1.4972315032531750e-05  3.9927544259482325e-06  -2.0434804554657385e-05  -3.3276093248813012e-07  -1.1050857240352008e-05  1.4869690466455417e-05  -2.0960407155803111e-05  -1.7030922068597715e-05  -6.5142945870292612e-06  -9.4473247575920202e-06  5.0597450841402090e-06  1.9398463367971454e-05  1.7920882297865405e-05  1.1357349166741376e-05  1.3462116566130008e-05  3.8368503975060531e-06  1.6022790286513783e-06  1.2213639396104495e-05  1.7931895482839019e-05  -8.8057106042592439e-06  1.4377214639093017e-05  2.1214272260515640e-05  2.0389854286704671e-05  1.8273978986919237e-05  5.4010957611629031e-06  2.9588352616271916e-07  -7.1395799708926094e-06  -1.5219139151167815e-05  -1.7821703657282165e-05  2.1839333989887191e-05  2.0227396735416734e-05  2.5103867623836732e-05  2.2988221514041814e-05  -2.0776962355779395e-05  2.6897164165129234e-05  1.7464926806368468e-05  2.8614027456566020e-05  2.4490839740638239e-05  3.2831383995526089e-05  2.3827989165681426e-05  8.4859637890451058e-06  8.9021451453375456e-06  1.1303209594928453e-05  1.3778072631067140e-05  1.0598004967117413e-05  -6.2441428932224306e-07  3.3930574868784730e-06  -1.5839464518273376e-05  6.3543501509801979e-06  1.0692100696885579e-05  1.4913026270884925e-05  8.8153154112712125e-06  4.4406716418613440e-06  -1.0802799619832036e-05  8.3644003537493165e-06  1.9687131696479300e-05  2.7891052935901584e-05  -4.1353214775098629e-06  -7.2062295045157482e-06  5.3041961693968518e-06  3.6017520500911207e-06  -3.6451944798908146e-06  -3.2374285175103764e-06  -8.4546816181978065e-06  1.0996522544362138e-05  -1.4608526998855320e-06  2.8879135772263250e-05  -5.9031831270398622e-06  -3.0262655807706903e-05  3.7848880184347486e-05  2.1045468509082129e-05  2.7746202743293289e-05  2.5412973953301618e-05  1.9173588895997855e-05  1.8151633116228625e-05  -1.7083481355154879e-05  1.9089011656481674e-05  -1.8119592898615341e-06  -2.5904255646581986e-05  -2.4625342221088208e-05  -1.9041608802319575e-05  -1.9549906889871859e-05  3.5602054366048226e-05  -9.7606899880757503e-07  2.6578383100519527e-05  2.5100662142643572e-05  7.5376277605158858e-06  1.0178581867003210e-05  2.0848167127024614e-06  5.4165760929756939e-06  5.0625228795311666e-06  7.0527816665747828e-06  2.9866424865290320e-05  2.1236551042246597e-05  3.7533157436136964e-05  9.7686711852789899e-06  -5.5857445439754559e-06  1.3898461235886942e-05  2.7240214192968680e-05  2.1780960626918386e-05  1.3912326911661910e-05  1.6654990859637578e-05  3.9275102421024518e-06  2.4273414291417893e-05  2.2788768023800556e-08  -1.5563289430581762e-05  1.5864044061388597e-05  2.4725702413995164e-05  -2.8021894423809531e-06  -1.5074554130226441e-05  3.3175334311713817e-05  -8.6936675259672982e-06  -1.8513335154113217e-05  -1.4680692378065798e-05  2.8732454014236453e-05  1.5113308713679050e-05  3.1041235482018281e-05  8.8472288456580304e-06  2.3154396088116904e-05  1.0048700188543126e-05  -1.0898319291568003e-05  1.4255142566974697e-05  -3.4960731764691321e-06  3.0687946261470194e-05  -1.0028846430236507e-05  -1.6879364682123430e-05  -1.0105687844644936e-05  1.5494119803698813e-05  2.9750569714657782e-05  9.8464094237584344e-06  1.7426593695081587e-05  2.9304656840855804e-05  1.0034296412629422e-05  -4.2248814750007316e-06  1.6069975677352683e-05  2.7167025267302295e-05  7.7622884115106971e-06  8.7555303199297904e-06  2.1380795488695567e-05  6.5449136394549056e-06  -4.5109354049537587e-06  1.1966791983328274e-05  2.8782838276784606e-05  -3.8471804154851169e-06  1.7864832763784591e-05  -5.6261490428356641e-06  2.2406327173111247e-05  6.8628471111067372e-06  2.5117032780960770e-05  -1.0102352908000785e-05  -1.3044527486192196e-05  -5.4144380927105428e-06  -1.7681089524259363e-05  3.2893427517357871e-05  -1.3423127915773422e-05  1.3389781199655654e-05  -1.9692044726692155e-05  3.3067611832466689e-05  -1.3556148644821114e-05  9.7993815384714699e-06  7.4198641904188152e-06  -2.1010983401626245e-05  1.8890839817279060e-05  1.2174481142479873e-05  2.3893209009100402e-05  2.0972353983719586e-05  7.3472634047039070e-06  2.0346189913551117e-06  2.3851676322610084e-05  -2.1121557484953640e-05  1.1124413536874571e-05  -1.7672816408704810e-05  1.4010961324275512e-05  -2.0231536737997916e-05  1.0634529989098144e-05  -7.3204416040090336e-06  2.8500422460323100e-05  -1.3101207177701827e-05  2.8233104674354575e-05  -2.3620310814411390e-07  8.3944178426313663e-06  -1.1322077158571601e-06  2.4483779229244008e-06  -1.1930731827211206e-05  -1.0688704515498965e-05  5.4264647351101187e-06  3.8229596122637086e-06  -1.7865218000020768e-05  2.1963614122305356e-05  2.2623083889936911e-05  1.4012135684633407e-05  -1.0615952858034575e-05  1.2746892410218666e-05  3.5695030780574613e-06  4.3886008847969794e-05  3.6420724478218906e-05  3.8268324233096765e-05  3.3853753228284848e-05  -8.0651049452347718e-06  2.7175254896706410e-05  3.2326386449761530e-05  1.2412239047150886e-05  1.1279480542449852e-05  2.8390262710987642e-05  4.5639172979690896e-05  -1.3624990436302541e-05  2.9560163251798522e-05  1.0274420626786924e-05  8.3621870412397256e-06  7.7369549481391381e-06  2.9901636986622404e-06  2.3947844492956413e-05  8.0798445323099771e-06  4.4409567935873070e-06  1.6142984046707671e-05  2.2789255740899944e-06  1.5154477565291418e-05  1.1095690504847373e-05  1.2641835898794938e-05  8.7860374207780955e-06  -8.2354945332136384e-06  1.0223084728671206e-05  2.3205621759842168e-05  3.7136557212838673e-05  1.4054604257559262e-05  5.9005469842700992e-06  9.6811795802448135e-06  1.1271228672742355e-05  1.2807276573476981e-06  7.8106529991439574e-06  5.5074529055352036e-06  5.2039299886694002e-06  6.6956070140973149e-06  6.9273951221325385e-06  5.2670205117223998e-06  1.0249717090775111e-05  1.6497374118381241e-05  2.4029552074593383e-06  2.7143294156742099e-06  2.8634044852872497e-06  2.4346316601559971e-05  7.6710975155795667e-06  1.4472131821698695e-05  7.8614956167321382e-06  3.8744720079342144e-06  6.7592237519877682e-06  6.3647791371351886e-06  7.6589257957090074e-06  1.1148139213181285e-05  6.8704227524243506e-06  3.9205423787531793e-06  4.1612467908886627e-06  4.0264973507024684e-06  1.8944337115564817e-05  1.7064181494818097e-05  1.9107348442782686e-05  1.6669115055091027e-05  1.5409919254786170e-05  1.8175211471876531e-05  1.4958692522653528e-05  2.1269186080513258e-05  1.9346980858081304e-05  2.2971283904024385e-05  2.8505386815477255e-05  2.2932807564070120e-05  2.7105674169408971e-05  3.1357550256580804e-05  2.9743152617955440e-05  3.2703763913466963e-05  2.5812403185066723e-05  3.1322243420971581e-05  3.3927157394093156e-05  3.1489503675565742e-05  3.2992998267243444e-05  3.4556886682360773e-05  3.2689593207942144e-05  3.3240666131741212e-05  3.0586770762991715e-05  3.0426754695595554e-05  2.9881431167664646e-05  2.6268795592068493e-05  2.5599892739435602e-05  2.4876954323976082e-05  2.7520295288305673e-05  2.2057797310372058e-05  2.4132034317461513e-05  1.8609037819028265e-05  2.8536052955771291e-05  2.7862582176995240e-05  1.9688361261827465e-05  1.5227439535146128e-05  2.0553017865072375e-05  2.4943239774214147e-05  1.3639339753766836e-05  3.4705289139040680e-05  2.8876168521860714e-05  1.0655653162831845e-05  1.1819913893602496e-05  8.8390562655541508e-06  1.0119584761929550e-05  8.4374730568970864e-06  1.0060035964141333e-05  9.3203969132245102e-06  1.1658922517478953e-05  1.1407127069742694e-05  1.4465389961706880e-05  1.4193853714990275e-05  1.8509649094246155e-05  1.7178041482046151e-05  2.2278547560506105e-05  2.0286263348680613e-05  2.5983758573788577e-05  2.2918312276037246e-05  2.8369993983199323e-05  2.4205948856349472e-05  2.9232778100388365e-05  3.2644747187016850e-05  3.2684211602071525e-05  2.8526896952001023e-05  3.0715430009572641e-05  3.4218752117982935e-05  3.0940018599369785e-05  3.3468816736590352e-05  2.5806405667310548e-05  2.9329834467920785e-05  3.0997866897990731e-05  2.6181603999363334e-05  2.2452162152080894e-05  1.9876804955830342e-05  2.6171103346218960e-05  2.7363637941530750e-05  3.6119011943523127e-05  3.0453896977565826e-05  2.5797541340385323e-05  2.3112983226121192e-05  2.1111319850661610e-05  1.8955708635421841e-05  1.6918488591882342e-05  1.7504182386545493e-05  1.3497698777837395e-05  1.3492427705991227e-05  1.1534841244197329e-05  1.1358852420986679e-05  1.0688353159534408e-05  9.8499059030553022e-06  1.0917334836692599e-05  1.1248623830094303e-05  1.3246648323076815e-05  1.2615413981643262e-05  1.5933079904439996e-05  1.6369820929991918e-05  2.0642331646671517e-05  1.8811582978016088e-05  2.4124310578276755e-05  2.6155151927785598e-05  2.9480439210151964e-05  2.6172639471234428e-05  3.0960218136131989e-05  3.4637269433625327e-05  3.5566790346886174e-05  3.0758120425292974e-05  3.4200640158129276e-05  3.8880779408355300e-05  2.8772211810540127e-05  3.5816761754429280e-05  3.9925333038384571e-05  3.5096121313892319e-05  3.8463661490972479e-05  4.2339235191767668e-05  2.9409486869676962e-05  2.5192552892941908e-05  2.2465597724213020e-05  2.6932215644133022e-05  3.1991189242081531e-05  3.5546823569506396e-05  2.2875485998232930e-05  3.9967369140711019e-05  3.5089637802358869e-05  3.0395799628006190e-05  6.3285819144435066e-06  3.9727326101125698e-05  2.5750251623697572e-05  2.4856966857204576e-05  1.9527579706128544e-05  2.1475862006963588e-05  9.3535425473277820e-06  2.8371548928270514e-05  1.8228188584144434e-05  2.9324909959037350e-05  1.7711071881627109e-05  1.8607143232554208e-05  1.2233130686458980e-05  1.1829495256090532e-05  1.0135766441086018e-05  3.3999658987797813e-05  1.5100841773021948e-05  1.1529343939769388e-05  1.4110246434247173e-05  1.7789499553441696e-05  2.1568693728510974e-05  2.4507937142828790e-05  2.0843430924343914e-05  1.9451357458675314e-05  1.6285585778164962e-05  1.3598158162518134e-05  1.3830976070089486e-05  8.6581485179408798e-06  8.6912860513897491e-06  3.8611633542244377e-06  4.9163097420864895e-06  9.9272207629805932e-07  -1.1557114918761822e-06  -4.0923668069874838e-06  -9.8303785384870471e-07  -4.7040004299045778e-06  -8.0156938973386298e-06  -7.5850370939043779e-06  -4.0123637619962404e-06  -4.9979541298374269e-06  -8.2555730269792891e-06  -5.1405794045945424e-06  -2.1511568451974314e-06  -1.9326944176960727e-06  6.8019782287779623e-07  1.8321099476645160e-06  1.5738658706383231e-07  3.6545849646203223e-06  5.1458903982945433e-06  7.2518518611675047e-06  6.5082884403218450e-06  9.0786939726885613e-06  8.9913078907123007e-06  1.0511857941457635e-05  9.2156923631971419e-06  1.0859890874138544e-05  1.1334308995019555e-05  1.1899888214900131e-05  9.0286803341315117e-06  1.0533014903131764e-05  -8.1742736087417406e-06  2.9894589748901145e-07  2.6323072733974044e-06  1.1439121627144611e-05  1.2404084649985919e-05  1.2445140902137684e-05  1.3021548749178882e-05  1.2947394169167138e-05  1.2536404780007525e-05  1.3434699788734354e-05  -1.0741402252037183e-05  -9.9551164746046028e-06  -7.1240736071228644e-06  1.2239942819089071e-05  3.4385091697140803e-05  2.1191744020075958e-06  3.2054840851071261e-05  1.3367029030022461e-05  8.5240057843114708e-06  2.3818212415171208e-05  1.9466227462722082e-05  1.4156308719210153e-05  1.3078462690488717e-05  1.0387151308661298e-05  1.2345414350219516e-05  1.1246969333101611e-05  1.4222775457548394e-05  1.6526865001665037e-05  1.0214228747746975e-05  9.0595234852487954e-06  1.4173202813118528e-05  3.7318461641058331e-05  3.4366322241571218e-05  3.5978175696785070e-05  3.1238779116942506e-05  3.2270446927531239e-05  1.0739775510574705e-05  3.2349435085783045e-06  4.6943031617807552e-06  -1.0713831928585454e-05  -1.1303030219232121e-05  1.5365433098999538e-05  1.8233839501226530e-05  2.0985944934227761e-05  1.8574004433043764e-05  9.0822751413340196e-06  3.7011919568295129e-05  3.6847364147199578e-05  1.8147911152932781e-05