<?xml version="1.0"?>
<VTKFile type="UnstructuredGrid"  version="0.1"  >
<UnstructuredGrid>
<Piece  NumberOfPoints="1277" NumberOfCells="2456">
<Points>
<DataArray  type="Float64"  NumberOfComponents="3"  format="ascii">0 0 0  0 1 0  1 1 0  1 0 0  1.1 -0.1 0  -0.1 -0.1 0  1.1 1.1 0  -0.1 1.1 0  0.5071886116542381 0.5045415904264682 0  0.6297922403256048 0.7146858650873632 0  0 0.9499999999997918 0  0 0.8999999999995836 0  0 0.8499999999996529 0  0 0.7999999999999998 0  0 0.7500000000003466 0  0 0.7000000000006934 0  0 0.6500000000010401 0  0 0.6000000000013869 0  0 0.5500000000017335 0  0 0.5000000000020587 0  0 0.4500000000018723 0  0 0.4000000000016644 0  0 0.3500000000014564 0  0 0.3000000000012483 0  0 0.2500000000010403 0  0 0.2000000000008322 0  0 0.1500000000006241 0  0 0.100000000000416 0  0 0.05000000000020799 0  0.04999999999989965 0 0  0.09999999999981467 0 0  0.1499999999997036 0 0  0.1999999999995579 0 0  0.2499999999994121 0 0  0.2999999999992664 0 0  0.3499999999991206 0 0  0.3999999999989749 0 0  0.4499999999988292 0 0  0.4999999999986943 0 0  0.5499999999988151 0 0  0.5999999999989468 0 0  0.6499999999990784 0 0  0.69999999999921 0 0  0.7499999999993417 0 0  0.7999999999994734 0 0  0.8499999999996051 0 0  0.8999999999997368 0 0  0.9499999999998684 0 0  1 0.04999999999989965 0  1 0.09999999999981467 0  1 0.1499999999997036 0  1 0.1999999999995579 0  1 0.2499999999994121 0  1 0.2999999999992664 0  1 0.3499999999991206 0  1 0.3999999999989749 0  1 0.4499999999988292 0  1 0.4999999999986943 0  1 0.5499999999988151 0  1 0.5999999999989468 0  1 0.6499999999990784 0  1 0.69999999999921 0  1 0.7499999999993417 0  1 0.7999999999994734 0  1 0.8499999999996051 0  1 0.8999999999997368 0  1 0.9499999999998684 0  0.9499999999997918 1 0  0.8999999999995836 1 0  0.8499999999996529 1 0  0.7999999999999998 1 0  0.7500000000003466 1 0  0.7000000000006934 1 0  0.6500000000010401 1 0  0.6000000000013869 1 0  0.5500000000017335 1 0  0.5000000000020587 1 0  0.4500000000018723 1 0  0.4000000000016644 1 0  0.3500000000014564 1 0  0.3000000000012483 1 0  0.2500000000010403 1 0  0.2000000000008322 1 0  0.1500000000006241 1 0  0.100000000000416 1 0  0.05000000000020799 1 0  -0.1 1.05000000000004 0  -0.1 1.000000000000079 0  -0.1 0.9500000000001624 0  -0.1 0.9000000000003032 0  -0.1 0.850000000000444 0  -0.1 0.8000000000005848 0  -0.1 0.7500000000007256 0  -0.1 0.7000000000008665 0  -0.1 0.6500000000010508 0  -0.1 0.6000000000012352 0  -0.1 0.5500000000014196 0  -0.1 0.500000000001539 0  -0.1 0.4500000000014195 0  -0.1 0.4000000000013 0  -0.1 0.3500000000011588 0  -0.1 0.3000000000010178 0  -0.1 0.2500000000008986 0  -0.1 0.2000000000007579 0  -0.1 0.1500000000006174 0  -0.1 0.1000000000005272 0  -0.1 0.05000000000040083 0  -0.1 2.671196597248127e-13 0  -0.1 -0.0499999999998666 0  -0.0500000000000906 -0.1 0  -1.730560139634463e-13 -0.1 0  0.04999999999975802 -0.1 0  0.09999999999961506 -0.1 0  0.1499999999994613 -0.1 0  0.199999999999302 -0.1 0  0.2499999999991446 -0.1 0  0.2999999999990088 -0.1 0  0.3499999999988296 -0.1 0  0.3999999999986936 -0.1 0  0.4499999999985143 -0.1 0  0.4999999999984002 -0.1 0  0.5499999999985247 -0.1 0  0.5999999999986493 -0.1 0  0.6499999999987955 -0.1 0  0.6999999999989417 -0.1 0  0.7499999999990659 -0.1 0  0.7999999999992116 -0.1 0  0.8499999999993573 -0.1 0  0.8999999999994526 -0.1 0  0.949999999999584 -0.1 0  0.9999999999997226 -0.1 0  1.049999999999861 -0.1 0  1.1 -0.0500000000000906 0  1.1 -1.730560139634463e-13 0  1.1 0.04999999999975802 0  1.1 0.09999999999961506 0  1.1 0.1499999999994613 0  1.1 0.199999999999302 0  1.1 0.2499999999991446 0  1.1 0.2999999999990088 0  1.1 0.3499999999988296 0  1.1 0.3999999999986936 0  1.1 0.4499999999985143 0  1.1 0.4999999999984002 0  1.1 0.5499999999985247 0  1.1 0.5999999999986493 0  1.1 0.6499999999987955 0  1.1 0.6999999999989417 0  1.1 0.7499999999990659 0  1.1 0.7999999999992116 0  1.1 0.8499999999993573 0  1.1 0.8999999999994526 0  1.1 0.949999999999584 0  1.1 0.9999999999997226 0  1.1 1.049999999999861 0  1.05000000000004 1.1 0  1.000000000000079 1.1 0  0.9500000000001624 1.1 0  0.9000000000003032 1.1 0  0.850000000000444 1.1 0  0.8000000000005848 1.1 0  0.7500000000007256 1.1 0  0.7000000000008665 1.1 0  0.6500000000010508 1.1 0  0.6000000000012352 1.1 0  0.5500000000014196 1.1 0  0.500000000001539 1.1 0  0.4500000000014195 1.1 0  0.4000000000013 1.1 0  0.3500000000011588 1.1 0  0.3000000000010178 1.1 0  0.2500000000008986 1.1 0  0.2000000000007579 1.1 0  0.1500000000006174 1.1 0  0.1000000000005272 1.1 0  0.05000000000040083 1.1 0  2.671196597248127e-13 1.1 0  -0.0499999999998666 1.1 0  0.6562412570221642 0.7076912112574615 0  0.6816859767835586 0.6986662164247324 0  0.7056906518294707 0.6872877867757228 0  0.7277868224831413 0.6734076139589956 0  0.7476707939392839 0.6570644237161819 0  0.7644251128990747 0.6380707659064189 0  0.7780088793259329 0.6169944939092444 0  0.7890504326193708 0.5946163799572649 0  0.7977355949571932 0.5712486572602937 0  0.8039018625430203 0.5471499887554041 0  0.8076161075630913 0.522808670386078 0  0.8090567763614201 0.4983268576394971 0  0.8079122906365248 0.4739742780541571 0  0.8042616011015313 0.4500452834645982 0  0.7981046680602494 0.4267810859478983 0  0.7894169539616697 0.4045638575140657 0  0.7782097920841398 0.3836031802771876 0  0.7645391010962792 0.3641283943557306 0  0.7486020808471293 0.3462634147235795 0  0.7303588699856464 0.3300782819386 0  0.7095992336705365 0.3156195471210481 0  0.6866799448183402 0.3028371001189778 0  0.6613501860538937 0.2925927777642547 0  0.6348350938582844 0.2849885410982814 0  0.6072605844710326 0.2797365255834206 0  0.5790760536164818 0.2760150327368697 0  0.550013663842993 0.2738507424711484 0  0.5210430610003886 0.2727251665334965 0  0.4923100252313903 0.2721064528540151 0  0.4635809272996855 0.2717395372334973 0  0.4350967514549671 0.2718980724236951 0  0.4068529567439736 0.2730689422136923 0  0.3802942830243615 0.2759011008212202 0  0.3557180139248984 0.2805890024983814 0  0.3324612103654092 0.287153275837675 0  0.3115451048792617 0.2952482234479085 0  0.2924195403514283 0.30557002682288 0  0.2750697630866917 0.3182192387692302 0  0.2594866377986288 0.3330907617697462 0  0.2456357035459053 0.3501607513070181 0  0.2333757383314807 0.3691541792439845 0  0.2220938514681646 0.3906093515551327 0  0.2120439034488397 0.4142427656048899 0  0.2035510330277819 0.4395747502782368 0  0.1973376050968493 0.4662187147511672 0  0.1938246380230357 0.4933306702967776 0  0.1938002653160535 0.5211838249380422 0  0.1985733228525974 0.5485824108571268 0  0.2069695096720526 0.5749515650171271 0  0.2184669326113566 0.5999584728240703 0  0.2320882363620879 0.6226039594478712 0  0.2471166875731204 0.6428496914353523 0  0.2626919972610152 0.6606784099685111 0  0.2790671701321212 0.6764381988555306 0  0.2967026361283066 0.6901147923648361 0  0.3158969471466988 0.7017629752812228 0  0.3367262101093111 0.7113205375472156 0  0.3590356945326934 0.7189184025132024 0  0.3829710872505591 0.7245260269525217 0  0.4086815509801537 0.7282501983972116 0  0.4353514609306018 0.7302202296841881 0  0.4627273863318353 0.730730498321097 0  0.4905108053052466 0.730240043005261 0  0.5185756720821474 0.7290013036716262 0  0.5466851064062282 0.7272045733130243 0  0.5749396790277211 0.7250487275513862 0  0.6027850800504515 0.7205776330845836 0  0.2684278644164438 0.6308811299118997 0  0.2463237062725584 0.3988395760454128 0  0.7499183634177988 0.6197675559933312 0  0.7819136244415321 0.5329634151324401 0  0.6358260195859999 0.6938485195759092 0  0.6153516144585295 0.2993853505120868 0  0.72107062734991 0.3508570465676089 0  0.5117967118467841 0.2899630052472768 0  0.2868834659646223 0.3470348027768651 0  0.3367656291266223 0.3114643680221665 0  0.4341124363570379 0.2970992865259787 0  0.3191402225338183 0.6745302057032669 0  0.3802308199249386 0.699915564234468 0  0.454614488598779 0.7083976885046512 0  0.5339468161285068 0.7087632719356811 0  0.7690913283668289 0.4225314132424098 0  0.2192254047408837 0.5522857702501438 0  0.2186025403383061 0.4649279357038741 0  0.7040016628086602 0.6648882369333349 0  0.3809905930184956 0.2995455753259049 0  0.780106050460228 0.4668186317550143 0  0.5865863204922707 0.7039190322112889 0  0.7702819394868828 0.5756428031483892 0  0.7485001829294908 0.3841268318663916 0  0.6837027042436652 0.322920915068677 0  0.5680329949100399 0.2905632367341703 0  0.2399104174580816 0.5957078025835105 0  0.2099202931015062 0.5065018728011454 0  0.4815093555749522 0.7093812821936593 0  0.4747923227939102 0.6867311360327057 0  0.4472647102979084 0.6852002184349705 0  0.4678309256621755 0.6632103282985238 0  0.4380796740018703 0.6610328288638059 0  0.4551447167824003 0.6418962805311585 0  0.4810531039272758 0.6364525213378437 0  0.4294211965630875 0.6352247202866661 0  0.4522301784739689 0.6082624493858622 0  0.4112462093306554 0.6057695731069208 0  0.5009926640688347 0.6007481568201315 0  0.5410665178989731 0.6289333905545502 0  0.548837391774767 0.5818273668945857 0  0.5834414599823615 0.6148971184980209 0  0.5959777886939575 0.5683541943721772 0  0.6292761635383907 0.600722871011111 0  0.6433020355088175 0.5543460146136855 0  0.678563053518794 0.5820210095298411 0  0.6926711659838146 0.5462261390394781 0  0.6574416348274582 0.5195804161040483 0  0.6998643241191636 0.5163941888619721 0  0.6775690377678902 0.4868721072427297 0  0.6278867596222003 0.4947024500080442 0  0.6420291684467169 0.4597245521256166 0  0.6906931556467635 0.4480472888886086 0  0.6602382115419677 0.4216705740827122 0  0.6108774940035099 0.4313652022964043 0  0.6253782316506562 0.3981742716499042 0  0.5798856037424642 0.4033149948866053 0  0.5978869942882343 0.3692003257212174 0  0.5475279852413157 0.3692677621874055 0  0.534592706640477 0.4058332314302707 0  0.5006554512335444 0.3691982831302609 0  0.4876068715194645 0.4089393587656618 0  0.4529390799225125 0.3704579545951193 0  0.4407107395498006 0.4104488152160189 0  0.66229
[...]
<PointData  Scalars="v"> 
<DataArray  type="Float64"  Name="v"  format="ascii">5.9578736243803514e-20  1.2759733788655968e-19  6.0287902335285146e-20  2.8587277694901116e-21  -1.0330760705261464e-21  -3.5041952073023459e-21  -3.5446917548985893e-22  -7.5599533644259160e-21  -2.1100079380633005e-05  2.1272851531010017e-05  -7.3118141098169750e-20  6.0491987222749633e-19  7.3408231209707906e-19  -3.7111662023100526e-19  1.8484361189935222e-18  1.5702451017794383e-18  -8.7532742035811133e-19  4.2431633482069616e-19  -1.5796181926415298e-19  1.0022617760392369e-19  1.4862229887905717e-18  5.5158307640653616e-19  -4.9843926362253244e-19  9.1826250547026771e-19  -1.3483691696491967e-18  2.7330897760078191e-19  6.3386061248624276e-19  6.5289356913961312e-19  -2.6897995721335750e-19  3.9777560909716025e-19  3.8634170030993676e-19  2.4093905709904672e-19  -2.0082123013321714e-19  6.0876801275036133e-19  -1.6192777546891966e-19  -2.3762337161300997e-18  -2.2617257064856057e-18  1.0692464049769676e-18  1.2637163706827697e-18  1.0983642589178855e-18  -7.1417665313135152e-20  7.3852555285421156e-19  8.8612010407322622e-19  5.7632518086485385e-19  7.0270217578133751e-19  1.5299408189314961e-19  3.6545508545177349e-19  -1.6304522538387272e-19  1.6678991995816262e-20  -1.4371812560570448e-19  4.5996773713228215e-19  3.4381634541096096e-18  -4.2871461908078469e-18  -4.2646716786391454e-20  1.1449303127418387e-18  3.6932732507711172e-19  -6.9863203589815247e-18  5.8218684730333862e-19  8.7050887930172821e-18  1.0635052818799999e-18  -2.1358578651045453e-18  -6.6165928514315183e-19  6.5226448242676535e-19  -3.4233383852427095e-18  -1.3597288625154429e-19  -1.0293245829769042e-19  8.9018413620514375e-19  -1.0056402963933225e-20  1.7635408373952061e-18  2.9334350610550440e-19  -3.1163321362461221e-18  2.1442252845092154e-19  3.9721279427155220e-19  3.4496276253948658e-20  6.5286060190867718e-18  -5.5022189691707602e-18  -6.3655540777473478e-18  5.0162599157323161e-18  -6.0907863745660908e-19  -5.6054612910428783e-18  -5.1955804907565776e-18  3.1615512074303320e-18  -2.4850767373632636e-19  2.5639699322207582e-19  -8.0689129266510021e-19  -6.7589213586995871e-19  6.3882008550517210e-21  3.8706052089331443e-21  8.4496261860463496e-21  8.4070083557460549e-20  5.8982971841028636e-20  2.6965194577456313e-20  2.0133375914169202e-19  7.8960017813559364e-20  -2.6366036958275339e-20  -2.0062093244286611e-20  3.4653802495723651e-20  5.1120698839335697e-20  1.9223591234024127e-19  4.1314750732332805e-20  6.8919978000507471e-20  8.8745314078344643e-20  -1.3574692740803434e-19  -4.5777862333722917e-20  1.1137854063808555e-19  7.6645791443368869e-20  -1.6990262197455079e-21  -1.3250502909452153e-20  9.1821023605208511e-21  -1.9728460777196363e-21  8.5031453248531500e-21  4.7460225867914161e-20  6.0089463845574762e-20  2.0610429295826029e-20  -1.5500652213773939e-20  6.5572954133329324e-20  -8.5046317975969300e-20  -3.4594376085872346e-19  -2.8164107647738230e-19  9.7268546258657845e-20  2.1229585647111701e-19  8.0985175845887340e-20  4.0314297909053445e-20  8.9871776462563132e-20  7.6446038983877599e-20  8.4265586103737669e-20  8.3769947802625537e-20  4.5748869891339315e-20  2.6827483268113879e-20  -8.7042514982564596e-22  -1.1097930718591322e-20  4.2095577261474562e-21  -1.0280788091448953e-21  2.9694765283535066e-21  -3.4671940090093998e-21  1.5426411270709842e-20  7.7931736823309418e-20  5.9736027084500955e-20  -5.8532443548226421e-20  -1.5066784049714504e-20  5.6367813078957399e-20  6.7927850766630150e-20  3.0355634713326624e-20  -2.6398286232728719e-20  2.0751990010524725e-20  8.8830510468731320e-20  -8.9625090328736379e-20  -1.3136456860803583e-20  9.0660499593020671e-20  6.1573928970105399e-20  -1.4705984605162875e-20  -1.8609359961735174e-20  -3.2607840079253340e-21  1.0371908416044243e-22  1.6117895121002334e-22  1.0485269651373620e-21  -3.6684013084767046e-21  4.8087205753077822e-21  3.3899918588394594e-20  4.5127157384625142e-20  3.0555058698570309e-20  3.4187960428362509e-20  4.5646451122749132e-20  2.7107357202637217e-20  8.0408143519522647e-21  1.3114154294636274e-20  -1.5400523717006391e-20  -5.1397620317639494e-20  4.3068111311533034e-20  2.6716815765449204e-20  -5.9622928903165372e-20  -3.2258018059851670e-20  1.3081538137624541e-20  4.2156346597809101e-20  3.5808531145009906e-20  1.5324908115084112e-21  5.6506101581790010e-21  6.3083081311404052e-21  2.8003156082650713e-05  3.3356070039619609e-05  3.5531601202268330e-05  3.6887010827696203e-05  3.2389616957824724e-05  2.6817233736526015e-05  1.9927144251910019e-05  1.2930976892233701e-05  7.3119789351814539e-06  2.7965287216713369e-06  3.9726498319831489e-07  -6.9968517000484846e-07  -6.8090993610669159e-07  1.2538515475205787e-06  6.9474519233136522e-06  1.2428432753012024e-05  1.8482220220029800e-05  2.5735950776961641e-05  3.2050168884889485e-05  3.6579837057737919e-05  3.4257906497828293e-05  3.1073930002081942e-05  2.3141480183824737e-05  1.4503510684902328e-05  6.7041318712779039e-06  -1.0228375058078636e-06  -7.5338723048947407e-06  -1.2654437511500367e-05  -1.6554452683387040e-05  -1.9559947306965469e-05  -2.0702048388190033e-05  -1.9158138146628518e-05  -1.7776155933708072e-05  -1.5061577310990287e-05  -1.0478138233028031e-05  -5.5220986775612688e-06  6.3429569266531230e-08  5.3342819946032598e-06  9.6660551325612177e-06  1.2731712530585407e-05  1.3824924662318392e-05  1.3718797254056135e-05  1.2386964707308916e-05  1.0738682263038259e-05  1.1119252237869649e-05  1.2047885291700846e-05  1.5644275783052124e-05  2.1557595364862598e-05  2.7644432467643350e-05  3.6452342318545752e-05  4.4249418752591768e-05  4.8116766794317777e-05  4.9427812106386234e-05  4.6830262115635400e-05  4.0373644161478947e-05  3.2199097449774536e-05  2.3513934239754233e-05  1.6269621944919112e-05  9.2144666397481777e-06  3.9186773282071048e-06  -1.0530981404279725e-06  -3.0800584636694649e-06  -2.6891208339794181e-06  -6.6554848569337210e-07  3.4235568208224107e-06  8.0651616638875904e-06  1.4441540301641243e-05  3.3679186695673265e-05  5.8371968787826336e-06  1.8600621930775805e-05  -5.6664893123065176e-06  1.7559282026568148e-05  4.3342513491864478e-06  2.1855907335389239e-05  -2.6255203826817870e-05  -1.0856934676477114e-06  -1.1647679049668011e-05  -2.4381318065374724e-05  2.6296591997303091e-05  5.5576323382535510e-06  -1.2720384228501295e-05  -9.1322546231380478e-06  8.3478448508443654e-06  1.6555727799918514e-05  4.1016859174601241e-06  2.5154184940290048e-05  -1.9203839163535378e-05  -2.4536460563419114e-07  2.9762299564349440e-06  7.3913150268936460e-06  1.6529386617480848e-05  2.0871192918165472e-05  -1.5869271468775458e-05  3.0355194593714772e-05  6.7224647054321526e-06  -1.4089687679077916e-05  -7.9763179600574815e-06  -6.0120952032364425e-06  -9.9809738773748136e-06  -7.0857302487228370e-06  -1.0892251367663301e-05  -1.3305507603152127e-05  -7.5422011518774254e-06  -1.2688098254185183e-05  -5.4527082505515535e-06  -1.5171156279894225e-05  -1.0572309764809182e-05  -1.2564782487795330e-05  -4.6210259435519234e-06  -7.1828897732602639e-06  1.2699368877440301e-06  -2.2738367277248456e-06  6.6525765132916083e-06  1.9745498994595960e-06  -3.4086507831759431e-06  -6.4792714371864093e-07  -2.3330333817886188e-06  -7.6900488561865618e-06  -5.5162031803790217e-06  1.1164026380252624e-06  1.0858067245782847e-06  -8.1594350282275145e-06  -2.8491256928053432e-06  -1.2219298401014560e-05  -6.3413207721996145e-06  -1.7209261969785339e-05  -1.9959580157987569e-05  -2.5016781618708341e-05  -2.5410846771064124e-05  -2.7777531238561105e-05  -2.5457548310332905e-05  1.1957918594238418e-05  -2.4482739414364295e-05  -2.1609490464990415e-05  -1.0108991446655150e-05  5.5243570661963428e-07  3.3354801937191540e-06  -5.8497691007122882e-06  9.2220028277869888e-07  -7.8814727476695543e-06  -5.3018102428313602e-07  8.1328910322858399e-06  5.4196797882896335e-06  -9.8543736971353108e-07  1.6231645649378448e-06  -2.3724216183692049e-06  7.8185092187545505e-06  -2.1521754343158900e-05  -6.3107212682834969e-06  -5.4750724151399670e-06  -1.3655330446192801e-05  5.6237040193010341e-06  6.4804572450136777e-06  1.2092881774507281e-05  1.6734036785883617e-05  -1.8471071361917335e-05  6.3842009353228757e-06  -3.1217106502436228e-06  -2.5511917981008005e-05  -7.3085832596142380e-06  -1.5109826377954438e-05  6.0340514503822535e-06  -2.5227866561738369e-05  -2.0484213461728629e-05  -9.3976065220861477e-06  -1.2123329912585446e-05  -1.8503664916540583e-06  1.3327841501672887e-05  1.1623022807095385e-05  4.3989530992798876e-06  6.8997576858649165e-06  6.4185209999877417e-07  -1.1529392817682530e-06  2.9356644111438358e-06  9.2307292993517373e-06  -1.6318441892564992e-05  6.7255034455192989e-06  1.3269922357045809e-05  1.3303236667780977e-05  1.1667383092376840e-05  -9.2110563833574890e-07  -5.5948491263175093e-06  -1.2853514111964181e-05  -2.0944744598752750e-05  -2.2835385187106648e-05  1.3988945038453953e-05  1.1941785414896428e-05  1.8087446824456929e-05  1.6314044615357205e-05  -2.5074548976510132e-05  1.9685146210278865e-05  1.1671269446821939e-05  2.3100855386744708e-05  1.9219335977472440e-05  2.7779708567524644e-05  1.9446644822902369e-05  -1.0892225861240705e-06  -8.2583197527098579e-07  1.7882156271438793e-06  9.9110733797088175e-06  7.1041654269461801e-06  -7.8442186918841494e-06  -3.4461646101516734e-06  -2.3106919896294872e-05  2.7224445276826398e-06  1.1868130029438344e-06  5.8290823107986422e-06  2.8574128784764377e-06  -2.5951168082423166e-06  -1.6751513772094529e-05  5.3854235166861792e-06  1.4596741867365872e-05  2.3064463902261469e-05  -7.4082415857965905e-06  -1.5354166240123815e-05  2.8254856935089240e-06  1.6090713207374924e-06  -1.1952099416803208e-05  -8.6155610092110404e-06  -1.3406909781307287e-05  8.0765043001893055e-06  -8.8163806208604758e-06  2.4330065651562070e-05  -7.9346735243276244e-06  -3.4436539501158598e-05  3.2981125118904334e-05  1.4944781387034178e-05  2.1339022098763314e-05  1.9252677639142842e-05  1.2702860634560713e-05  1.1990103672777256e-05  -1.9417452785824863e-05  1.5028796154412046e-05  -3.5632775033291926e-06  -2.9130398482407167e-05  -2.9257459573142865e-05  -2.2515856085880608e-05  -2.3376473807705243e-05  3.0493753691516300e-05  -3.4416612788508119e-06  2.0783341925501145e-05  1.9239502215661825e-05  -2.6522651121049627e-06  6.2147878527015313e-07  -4.0884777829141256e-06  -4.9670017148500900e-06  -2.0099583792548313e-06  -2.6413399343024152e-06  2.4003045839824711e-05  1.2890819406042742e-05  3.3043659462183654e-05  1.3454909955910481e-07  -1.2684911102609134e-05  4.8841110058436045e-06  1.9820868699768474e-05  1.3666818093142613e-05  7.6299794588824478e-06  1.0729305340989252e-05  -1.6608559215043500e-06  1.7633785104321024e-05  -8.5213607774263631e-06  -2.0778235145859402e-05  1.0465606210119348e-05  1.7268872227276307e-05  -1.0114112157067862e-05  -1.9987952832667469e-05  2.8396560109047183e-05  -1.6394133269551095e-05  -2.5213030309636302e-05  -2.1586354892839176e-05  2.2188163449372894e-05  8.6571359053650888e-06  2.4525030667998492e-05  2.4113202062696478e-06  1.7281819430556733e-05  7.5483245144524308e-06  -1.8827733187963245e-05  5.0702773011087354e-06  -8.9590192459244767e-06  2.6418356351924420e-05  -1.7847214645410872e-05  -2.0007067202850811e-05  -1.5338978075391194e-05  1.1815627401764186e-05  2.4224209243520287e-05  2.4540309000834364e-07  1.0442190659419553e-05  2.2429589509605554e-05  3.3374209099883527e-06  -1.2598418226296513e-05  7.9905544894332063e-06  2.1431749311901378e-05  3.2921711334656147e-06  -9.6204376905948471e-07  1.5138908729504114e-05  3.7431855263955104e-06  -1.2031042302660756e-05  2.6382396170489683e-06  2.2107774659003194e-05  -6.1386516056005708e-06  9.1900720101514429e-06  -1.2740930631134439e-05  1.4891363165147555e-05  4.9377101666528286e-06  1.8048442714199079e-05  -1.6039413339540706e-05  -1.8487229199372658e-05  -9.5441906292212321e-06  -2.2276383935826553e-05  2.8279822420378125e-05  -1.6199676684153744e-05  7.1063166882145717e-06  -2.4211929920108730e-05  2.7880286040513226e-05  -1.6667798922627623e-05  7.8663117343378602e-08  -2.2998556751906341e-06  -2.5462478072924917e-05  1.0597029356797865e-05  6.7937369372324177e-06  1.6051938887799107e-05  1.2703425301310900e-05  6.0447110887642002e-07  -4.7393211245273420e-06  1.6083511330876724e-05  -2.5846592266206103e-05  4.4954715064385041e-06  -2.3124961125741041e-05  7.5680192754290823e-06  -2.4021638352551174e-05  3.9452742254885899e-06  -1.2711687302839407e-05  2.3487906959854716e-05  -1.8333732081548224e-05  2.2909022893868459e-05  -7.2794636618565711e-06  1.4578634314394249e-06  -5.0919682849280646e-06  -4.6312405920969197e-06  -1.9205038259906914e-05  -1.3994513004014535e-05  -1.1405259631467071e-06  -3.1711641893190288e-06  -2.1755186110846858e-05  1.6154000831247572e-05  1.6543919288852344e-05  5.0577823584768523e-06  -1.3153511517886888e-05  3.5499821144993374e-06  2.5809530517303160e-06  3.9518756478598184e-05  3.0892282624856476e-05  3.3235052480279213e-05  2.7818005185818700e-05  -9.7985439998115214e-06  2.1856918679749964e-05  2.7720214354495002e-05  1.1297560329041152e-05  5.3854551454934651e-06  2.1489893518953126e-05  4.1938156715015982e-05  -1.6347075436097931e-05  2.4619296796298407e-05  4.6855730655991569e-06  7.9419626591217802e-06  7.2241631730937390e-06  2.9753088373621840e-06  1.6863585452999910e-05  7.5272469094294613e-06  4.4286875930407853e-06  1.1462833330038594e-05  -2.1078843788644709e-06  7.2656373791504209e-06  1.0546721069918029e-05  4.6928429800541210e-06  8.0688616020793401e-06  -1.2068355583905955e-05  9.5217997313010957e-06  1.8298102008582513e-05  3.3552829794008022e-05  1.1962759060021005e-05  4.8899042894245162e-06  8.8919448478587526e-06  3.1737361294617887e-06  9.2884612555646066e-07  6.7467814176970168e-06  4.6577019657811047e-06  5.0425667060134949e-06  5.7235610653895702e-06  1.0203031538389985e-06  4.0838642072985023e-06  9.3679323272179075e-06  1.3754374903720452e-05  1.5794380912066850e-06  1.8044787690646468e-06  2.0333068864944304e-06  2.1048855920543814e-05  6.5958834021079378e-06  1.3630246670727852e-05  7.5295946349710764e-06  3.9150637776069510e-06  6.1006128473946312e-06  6.0149102992649502e-06  7.2470250886982548e-06  1.0171981289301033e-05  6.5526860181449390e-06  3.9603373770494095e-06  3.9842463847279177e-06  3.8079886250196138e-06  1.5997023142174794e-05  1.4480057678080121e-05  1.6395880103781762e-05  1.4389405664099552e-05  1.3251222060417901e-05  1.5843150316399075e-05  1.3145320061231696e-05  1.8550596370461088e-05  1.7094782640333566e-05  2.0381561959563061e-05  2.5106083259084692e-05  1.8152933722120847e-05  2.2484789417666341e-05  2.6579327979660335e-05  2.5433137598283498e-05  2.8269849103136194e-05  2.1627719054036665e-05  2.7451486768343568e-05  2.9867025550289061e-05  2.8132247752565799e-05  2.9580985205273724e-05  3.0477504479964072e-05  2.9288350922285566e-05  2.9173665365499215e-05  2.7782729087783381e-05  2.7156536517611587e-05  2.5979524711952137e-05  2.3260642231024825e-05  2.3240847486519531e-05  2.1348597206629103e-05  2.2944517080207488e-05  1.7974953598111666e-05  1.8739397741687413e-05  1.3956388419383334e-05  2.5268124735408484e-05  2.5152133498144562e-05  1.3819282632724254e-05  9.9022929302607663e-06  1.7972938202578747e-05  2.2289834384284741e-05  9.8939237138082661e-06  2.9991846266955039e-05  2.3304221489542940e-05  6.5578544681128450e-06  6.2431599633300959e-06  4.4778668438940882e-06  4.2850719379528274e-06  3.8979932310263405e-06  3.9129570587462288e-06  4.7231356197911985e-06  5.5649870059061883e-06  6.9424452955771618e-06  8.7653990298555902e-06  9.8770273110641637e-06  1.3047060760032877e-05  1.3141204216995257e-05  1.7484064013712368e-05  1.6700431264301786e-05  2.1824317223574811e-05  1.9806543480832603e-05  2.4850965713526400e-05  2.1612001537488506e-05  2.6310684216084158e-05  2.8913070658286363e-05  2.9622011577080988e-05  2.6162839781840151e-05  2.8267655690394770e-05  3.1157448665102324e-05  2.8508834148192070e-05  3.0472180563516466e-05  2.3972632209340482e-05  2.6947945569436323e-05  2.8050047421721983e-05  2.4314615296833213e-05  2.0807395945234718e-05  1.8619240934658101e-05  2.3880847972986325e-05  2.4424065054129325e-05  3.2351374106432209e-05  2.6931042724913952e-05  2.2162613160729979e-05  2.0164057223639840e-05  1.7521253269929786e-05  1.6086506338814110e-05  1.3373730139111183e-05  1.3264662549586558e-05  9.1409742093524684e-06  1.0009528341274533e-05  7.3648454596421383e-06  8.0544088672176142e-06  6.7619748575001386e-06  5.1096814717196178e-06  6.4167643457223911e-06  7.6464782407551530e-06  9.2161972380870889e-06  9.4405062801291052e-06  1.2338325101210812e-05  1.1927167723021625e-05  1.6774572883226472e-05  1.5734160608518454e-05  2.0817671353992737e-05  2.2148455991276133e-05  2.6045647489925712e-05  2.3397560438834527e-05  2.8083086825270554e-05  3.1168481516624164e-05  3.2672082161368178e-05  2.8418953814983042e-05  3.1860182719370568e-05  3.6071728170703992e-05  2.6937366423550674e-05  3.3567608290492825e-05  3.7264442150847200e-05  3.2986085126935739e-05  3.5965336832592084e-05  3.9108282059015872e-05  2.7768542850335327e-05  2.3423845441936954e-05  2.1145176768069558e-05  2.1735507220834528e-05  3.0084895378914168e-05  3.3130896228085827e-05  2.0830294056632277e-05  3.7117472177536481e-05  3.2403524525124677e-05  2.8170437107762857e-05  3.5088810521464303e-06  3.6457256007086827e-05  2.3574838266753922e-05  2.3495609527140459e-05  1.7339674395538387e-05  2.0154172039558086e-05  4.1633266360674552e-06  2.4277466779402577e-05  1.6116329580959522e-05  2.6846935663119764e-05  1.1131753308540290e-05  1.7679756133772163e-05  5.3010028660702315e-06  9.2195162762523885e-06  7.4856296137816197e-06  2.9098496404800981e-05  1.4290757886205349e-05  8.8203437596319053e-06  9.2610095737862861e-06  1.3025750413264642e-05  1.7357604344089881e-05  2.1336291257579419e-05  1.8330647160604462e-05  1.6296079948015243e-05  1.3970606764053523e-05  1.0805365232566424e-05  1.0309443850574430e-05  5.4735113054881231e-06  6.2442975621893787e-06  9.6822655194442074e-07  2.8424168756928226e-06  -1.3300280689978892e-06  -4.0494894876729148e-06  -6.6180894290175368e-06  -2.8008376304943444e-06  -6.6176939334809327e-06  -1.0448090209151850e-05  -9.5298244255481555e-06  -5.4381491210892005e-06  -6.3658951919558618e-06  -1.0006732453441519e-05  -6.4052352254152370e-06  -3.0771009256889736e-06  -2.7791916732576346e-06  1.0011364127829303e-07  1.3535731909368557e-06  -4.9902435148224427e-07  3.2360011322296868e-06  4.8974730063466472e-06  7.0716172636126706e-06  6.1878573780913286e-06  8.9340052922221959e-06  8.6854133226380163e-06  1.0329905275161732e-05  9.1767265739074877e-06  1.0475689983905967e-05  1.1054674616237831e-05  1.1357290954843140e-05  8.4988945477619204e-06  1.0426258138791147e-05  -9.7851704415088446e-06  -3.3825597375044966e-07  2.2703506887285772e-06  1.1034762512065809e-05  1.1663673597708034e-05  1.1543355744130279e-05  1.1884149945297512e-05  1.1679853443998728e-05  1.1535532102185918e-05  1.1946175611703585e-05  -1.2799770885382913e-05  -1.1824271016359151e-05  -8.5930253078847981e-06  1.1164894305438155e-05  3.1227890145290944e-05  1.7474308534150070e-06  2.8009790466268032e-05  1.1870933231952043e-05  3.1920381537591761e-06  2.1934444954417651e-05  1.5031016746863684e-05  9.8106267963835703e-06  1.1724937420136346e-05  5.4990406991355555e-06  1.1129608563724378e-05  4.3522556619797179e-06  7.4267254015678235e-06  9.2667547471403544e-06  9.5229052018938201e-06  5.2448468751120845e-06  8.9645612774659780e-06  3.1888578244190923e-05  2.8855348600236975e-05  3.0832372507734842e-05  2.5332601980544172e-05  2.6970291433551795e-05  3.7399492081516047e-06  3.0423124039549490e-06  4.5420141144070849e-06  -1.3006992309718921e-05  -1.4105396018829401e-05  1.4356061329055393e-05  1.7078704488440913e-05  1.9363306050118497e-05  1.6860333378884253e-05  3.6451144135388181e-06  3.225038644021777