<?xml version="1.0"?>
<VTKFile type="UnstructuredGrid"  version="0.1"  >
<UnstructuredGrid>
<Piece  NumberOfPoints="1277" NumberOfCells="2456">
<Points>
<DataArray  type="Float64"  NumberOfComponents="3"  format="ascii">0 0 0  0 1 0  1 1 0  1 0 0  1.1 -0.1 0  -0.1 -0.1 0  1.1 1.1 0  -0.1 1.1 0  0.5062779566481479 0.5029105454562052 0  0.6249050124322106 0.7333263267726297 0  0 0.9499999999997918 0  0 0.8999999999995836 0  0 0.8499999999996529 0  0 0.7999999999999998 0  0 0.7500000000003466 0  0 0.7000000000006934 0  0 0.6500000000010401 0  0 0.6000000000013869 0  0 0.5500000000017335 0  0 0.5000000000020587 0  0 0.4500000000018723 0  0 0.4000000000016644 0  0 0.3500000000014564 0  0 0.3000000000012483 0  0 0.2500000000010403 0  0 0.2000000000008322 0  0 0.1500000000006241 0  0 0.100000000000416 0  0 0.05000000000020799 0  0.04999999999989965 0 0  0.09999999999981467 0 0  0.1499999999997036 0 0  0.1999999999995579 0 0  0.2499999999994121 0 0  0.2999999999992664 0 0  0.3499999999991206 0 0  0.3999999999989749 0 0  0.4499999999988292 0 0  0.4999999999986943 0 0  0.5499999999988151 0 0  0.5999999999989468 0 0  0.6499999999990784 0 0  0.69999999999921 0 0  0.7499999999993417 0 0  0.7999999999994734 0 0  0.8499999999996051 0 0  0.8999999999997368 0 0  0.9499999999998684 0 0  1 0.04999999999989965 0  1 0.09999999999981467 0  1 0.1499999999997036 0  1 0.1999999999995579 0  1 0.2499999999994121 0  1 0.2999999999992664 0  1 0.3499999999991206 0  1 0.3999999999989749 0  1 0.4499999999988292 0  1 0.4999999999986943 0  1 0.5499999999988151 0  1 0.5999999999989468 0  1 0.6499999999990784 0  1 0.69999999999921 0  1 0.7499999999993417 0  1 0.7999999999994734 0  1 0.8499999999996051 0  1 0.8999999999997368 0  1 0.9499999999998684 0  0.9499999999997918 1 0  0.8999999999995836 1 0  0.8499999999996529 1 0  0.7999999999999998 1 0  0.7500000000003466 1 0  0.7000000000006934 1 0  0.6500000000010401 1 0  0.6000000000013869 1 0  0.5500000000017335 1 0  0.5000000000020587 1 0  0.4500000000018723 1 0  0.4000000000016644 1 0  0.3500000000014564 1 0  0.3000000000012483 1 0  0.2500000000010403 1 0  0.2000000000008322 1 0  0.1500000000006241 1 0  0.100000000000416 1 0  0.05000000000020799 1 0  -0.1 1.05000000000004 0  -0.1 1.000000000000079 0  -0.1 0.9500000000001624 0  -0.1 0.9000000000003032 0  -0.1 0.850000000000444 0  -0.1 0.8000000000005848 0  -0.1 0.7500000000007256 0  -0.1 0.7000000000008665 0  -0.1 0.6500000000010508 0  -0.1 0.6000000000012352 0  -0.1 0.5500000000014196 0  -0.1 0.500000000001539 0  -0.1 0.4500000000014195 0  -0.1 0.4000000000013 0  -0.1 0.3500000000011588 0  -0.1 0.3000000000010178 0  -0.1 0.2500000000008986 0  -0.1 0.2000000000007579 0  -0.1 0.1500000000006174 0  -0.1 0.1000000000005272 0  -0.1 0.05000000000040083 0  -0.1 2.671196597248127e-13 0  -0.1 -0.0499999999998666 0  -0.0500000000000906 -0.1 0  -1.730560139634463e-13 -0.1 0  0.04999999999975802 -0.1 0  0.09999999999961506 -0.1 0  0.1499999999994613 -0.1 0  0.199999999999302 -0.1 0  0.2499999999991446 -0.1 0  0.2999999999990088 -0.1 0  0.3499999999988296 -0.1 0  0.3999999999986936 -0.1 0  0.4499999999985143 -0.1 0  0.4999999999984002 -0.1 0  0.5499999999985247 -0.1 0  0.5999999999986493 -0.1 0  0.6499999999987955 -0.1 0  0.6999999999989417 -0.1 0  0.7499999999990659 -0.1 0  0.7999999999992116 -0.1 0  0.8499999999993573 -0.1 0  0.8999999999994526 -0.1 0  0.949999999999584 -0.1 0  0.9999999999997226 -0.1 0  1.049999999999861 -0.1 0  1.1 -0.0500000000000906 0  1.1 -1.730560139634463e-13 0  1.1 0.04999999999975802 0  1.1 0.09999999999961506 0  1.1 0.1499999999994613 0  1.1 0.199999999999302 0  1.1 0.2499999999991446 0  1.1 0.2999999999990088 0  1.1 0.3499999999988296 0  1.1 0.3999999999986936 0  1.1 0.4499999999985143 0  1.1 0.4999999999984002 0  1.1 0.5499999999985247 0  1.1 0.5999999999986493 0  1.1 0.6499999999987955 0  1.1 0.6999999999989417 0  1.1 0.7499999999990659 0  1.1 0.7999999999992116 0  1.1 0.8499999999993573 0  1.1 0.8999999999994526 0  1.1 0.949999999999584 0  1.1 0.9999999999997226 0  1.1 1.049999999999861 0  1.05000000000004 1.1 0  1.000000000000079 1.1 0  0.9500000000001624 1.1 0  0.9000000000003032 1.1 0  0.850000000000444 1.1 0  0.8000000000005848 1.1 0  0.7500000000007256 1.1 0  0.7000000000008665 1.1 0  0.6500000000010508 1.1 0  0.6000000000012352 1.1 0  0.5500000000014196 1.1 0  0.500000000001539 1.1 0  0.4500000000014195 1.1 0  0.4000000000013 1.1 0  0.3500000000011588 1.1 0  0.3000000000010178 1.1 0  0.2500000000008986 1.1 0  0.2000000000007579 1.1 0  0.1500000000006174 1.1 0  0.1000000000005272 1.1 0  0.05000000000040083 1.1 0  2.671196597248127e-13 1.1 0  -0.0499999999998666 1.1 0  0.6501826979267723 0.7275077827923483 0  0.6745833808858137 0.7185627794093405 0  0.6975047999073619 0.7062031673266815 0  0.7184707926032952 0.690722874324413 0  0.737183238483972 0.6725645816401999 0  0.7516525866834576 0.6509258064422703 0  0.761506567844021 0.62690728899097 0  0.7694583949860461 0.6022528029353255 0  0.7750320432716962 0.5769923229084277 0  0.7782880111218794 0.5513794530932367 0  0.7796153175820247 0.5256337771407842 0  0.7792062318073233 0.4998910500801446 0  0.7769474467808966 0.4742666489455076 0  0.7728826877105527 0.4488875625582032 0  0.7671195020846806 0.4238542058597672 0  0.7594812531531627 0.3993381138727652 0  0.7499799860455548 0.3754784270676056 0  0.7387251922320981 0.3523763385660565 0  0.7255403396462066 0.3303038115481776 0  0.7104097931985182 0.3094596953735934 0  0.6931129705814332 0.2902477867920083 0  0.6738412556891452 0.2729332489058914 0  0.6523404105204289 0.2583400053285759 0  0.6290156037378619 0.2468302959125181 0  0.6038251405133872 0.2403966018798101 0  0.5780039409314839 0.2376161163540466 0  0.5521011032688387 0.2377738292704519 0  0.5263948381645374 0.240349730452247 0  0.5010835552580913 0.2451484366084481 0  0.4761192651889698 0.2512707545199329 0  0.4515290683073487 0.2585704788274634 0  0.427344808323494 0.2669857943999369 0  0.4036830454259654 0.2765873274428532 0  0.3806623098624086 0.2873646772074929 0  0.3582938504088011 0.2993283437778174 0  0.3366147315196723 0.3123672172922711 0  0.3156671463990134 0.3265168132349021 0  0.2955835433447049 0.341849357039734 0  0.2763907166658039 0.3582849048756279 0  0.257988307957893 0.3756289890032208 0  0.2405162855191645 0.393966396152478 0  0.2239712280201688 0.4132443304592168 0  0.208371270398502 0.433416843736638 0  0.1938097044347169 0.4544917010383313 0  0.1816771777805122 0.477191340946577 0  0.1726925809254507 0.5014767152667717 0  0.1712381291483329 0.5274278235916972 0  0.1761673161343453 0.5530924904164877 0  0.1871547492901954 0.5765890607736589 0  0.2032490769761005 0.596863772218426 0  0.2209690446615191 0.6155413534793162 0  0.2400441605093587 0.6326967517218869 0  0.2599997684201771 0.6486754254633418 0  0.2806870585409611 0.6636253223564252 0  0.302259320371898 0.6772608062884213 0  0.3246794068444011 0.6894452028746699 0  0.3478950425043023 0.7000263756022872 0  0.3716224553062678 0.7094250393655737 0  0.395844157762039 0.7176259332682889 0  0.4205408992239822 0.7244020092987267 0  0.4455826143361747 0.7299138929301366 0  0.470885560951132 0.7342930889387794 0  0.4963750425555525 0.7376466119120603 0  0.5220331136913816 0.7397084414568946 0  0.5477902491251967 0.7404190358846723 0  0.5735867284623372 0.7397451444935829 0  0.5993492106171234 0.737441946692742 0  0.2635005984907632 0.6227512848291912 0  0.2495208848186357 0.418787791742529 0  0.7356490853515574 0.6315297899012802 0  0.7572056371283554 0.5367565835974365 0  0.6307199623806614 0.7108633487390795 0  0.6104917317136072 0.2648012495738391 0  0.701162417803711 0.3325017858494394 0  0.51822194327559 0.2630987381945051 0  0.3022943241757386 0.3670227386318176 0  0.3582602625492858 0.3233743425760157 0  0.4495724004279993 0.2873931495324887 0  0.3241662086904172 0.6643846953599523 0  0.3901083135125222 0.6931779810824199 0  0.46220613592065 0.7099569480002573 0  0.5357533549482066 0.719180336085033 0  0.741516380683399 0.4171690036682165 0  0.2012123887820311 0.5551618857910751 0  0.2069032727344033 0.4771935694685494 0  0.6950522345203577 0.6814418926417793 0  0.401436637541176 0.3018046598430981 0  0.7519716393216375 0.4657754098520126 0  0.5844472925368782 0.7179717992989486 0  0.7502136313904937 0.5828025967360956 0  0.7239471446956898 0.3729815994198736 0  0.6698250762291965 0.2965309285033078 0  0.5681264048260763 0.2566492276302662 0  0.2280126591092562 0.5921256506899657 0  0.1914622257296587 0.5139569230740355 0  0.487341915777082 0.7142705202689408 0  0.4799934374078358 0.6898046025140288 0  0.4538145906195683 0.685363149264032 0  0.472178046703243 0.6648788084949027 0  0.4434192660599626 0.6601425196524177 0  0.4588838470167542 0.6422514267326168 0  0.4836047141416976 0.6384311951822912 0  0.4334655386087445 0.6338376887604449 0  0.4546636926675136 0.6082602083900155 0  0.4140084469159012 0.6040400623572281 0  0.5014230227316223 0.6028336488479363 0  0.5401832105289638 0.6344583958950936 0  0.5461307320662127 0.5849862051426755 0  0.5794994425060812 0.6218913157271138 0  0.5896603807478965 0.5722301943505209 0  0.6216931555164541 0.6087231179873968 0  0.6326992639919304 0.5584394518635211 0  0.6663740888548678 0.5898565821401918 0  0.677307187766283 0.5507302817342016 0  0.6443002791523318 0.5204719984344508 0  0.6823815758671137 0.5179230440194229 0  0.661454502172529 0.4845962882186342 0  0.6170984279071197 0.4922727151569515 0  0.6294374134946773 0.4534151518028265 0  0.6725308638848962 0.4414442689341529 0  0.645724566426196 0.4105976308166289 0  0.6018651267732804 0.4211851170745747 0  0.6154060039847946 0.3831161353514477 0  0.5748936051754552 0.3898345853382524 0  0.5920447998235682 0.3496401255715929 0  0.5472736642285533 0.3524599515374437 0  0.5341183188685525 0.3950079880191548 0  0.5051117175033959 0.3570152169502967 0  0.4910185978512796 0.4021992750381372 0  0.4613319694723703 0.3646475280866375 0  0.4469662253091448 0.4085369788600015 0  0.6531113795992171 0
[...]
<PointData  Scalars="v"> 
<DataArray  type="Float64"  Name="v"  format="ascii">5.8726175840960939e-20  1.2765801502297853e-19  6.0343269122076890e-20  2.6660719871626701e-21  -1.0120414941010224e-21  -3.4517588817072610e-21  -3.6096190340269106e-22  -7.5711819365426750e-21  -3.9597831573646877e-05  -2.1106539043829793e-05  -7.5248819936277558e-20  6.0616118972362505e-19  7.3462541593626657e-19  -3.7361653870010254e-19  1.8467065870640273e-18  1.5669411509744454e-18  -8.7372299232732964e-19  4.3244421952172527e-19  -1.6100330218074299e-19  1.0210275802136568e-19  1.4846332881467838e-18  5.4808629429240461e-19  -5.1202782696146846e-19  9.1752173663806551e-19  -1.3528709092351135e-18  2.6774882242239558e-19  6.3480602167736732e-19  6.5350753261691555e-19  -2.6403668600556426e-19  3.9442498376591546e-19  3.8080232367605746e-19  2.4885338788779507e-19  -2.0505568006959726e-19  6.0873298720915376e-19  -1.6243171648077140e-19  -2.3793095007628702e-18  -2.2539982732534981e-18  1.0676433411870225e-18  1.2574505679446415e-18  1.1218635566812469e-18  -7.4591376790378259e-20  7.2949237811818161e-19  8.8765459762033887e-19  5.7924825945811784e-19  6.9762537762570117e-19  1.5874383564274861e-19  3.6450340935503114e-19  -1.6048315191838046e-19  1.6497986993462057e-20  -1.4356952504121172e-19  4.6013059877930567e-19  3.4370272430105831e-18  -4.2860642451166020e-18  -4.1424678098224617e-20  1.1382077057021937e-18  3.6958265987656059e-19  -6.9923040809371171e-18  5.6697351855087778e-19  8.7004315283639741e-18  1.0652482324829373e-18  -2.1500197264988750e-18  -6.7682443454359752e-19  6.5298115347653889e-19  -3.4236372703968815e-18  -1.3713374114498149e-19  -9.9611640596141813e-20  8.9036996394501151e-19  -1.0103699807265180e-20  1.7555892612935661e-18  2.9076522318983321e-19  -3.1197032733844665e-18  2.1531984434315981e-19  3.9297247463861921e-19  2.3902951760346484e-20  6.5357465920391415e-18  -5.5009140046855717e-18  -6.3652232954048635e-18  5.0213560072560158e-18  -6.0878313594495890e-19  -5.6062802118920718e-18  -5.2000881908738803e-18  3.1572275158891760e-18  -2.5071642460585546e-19  2.5533449378173777e-19  -8.0809416511533756e-19  -6.7523736792694931e-19  6.4293658856505536e-21  3.7994450345011740e-21  8.2393311413480350e-21  8.4237194304649674e-20  5.8979762069839578e-20  2.6692579985411817e-20  2.0098707472491318e-19  7.8535801402675708e-20  -2.5977725991425183e-20  -1.9201085882046587e-20  3.4646811949886168e-20  5.1042895257720465e-20  1.9235898577705931e-19  4.0223004336037588e-20  6.7195284198210077e-20  8.8306192372320630e-20  -1.3626840621168619e-19  -4.6415419124593698e-20  1.1121659188630149e-19  7.6881741850215832e-20  -1.3176108829246297e-21  -1.3160691143510038e-20  9.0739627796163416e-21  -1.9630452571013764e-21  8.4222989287826457e-21  4.6798252529965823e-20  5.9778655887491229e-20  2.1083003462774450e-20  -1.5595204896557392e-20  6.5295098488965575e-20  -8.4993168656525439e-20  -3.4588913498869399e-19  -2.8091430616844953e-19  9.6915100178176641e-20  2.1214339130427941e-19  8.3194936471384503e-20  4.0554893638110808e-20  8.8508749892616793e-20  7.6705897180909161e-20  8.4466313816455539e-20  8.3296219650754619e-20  4.6108587334073413e-20  2.7078793405489632e-20  -7.5070084427859110e-22  -1.0999771118334246e-20  4.1570978178921171e-21  -1.0256750445764185e-21  2.9419720229272040e-21  -3.4973673618845606e-21  1.5474181104604149e-20  7.7848182031252700e-20  5.9836644942760661e-20  -5.8179408959694234e-20  -1.5185811296660847e-20  5.5786975855669833e-20  6.7692585731535496e-20  2.9390373252850996e-20  -2.8332453216037768e-20  2.0038978937229326e-20  8.8718583307883436e-20  -9.1368541605580184e-20  -1.4961883078056848e-20  9.0383646100840259e-20  6.1868750966883194e-20  -1.4691254352466852e-20  -1.8334660038753802e-20  -3.1130853399891054e-21  6.4241426373965237e-23  1.7382624107500724e-22  1.0604179217039981e-21  -3.7073017884713766e-21  4.4783836590928072e-21  3.3400215907413326e-20  4.4527820084163394e-20  3.0279214334580677e-20  3.4131224918463367e-20  4.5148090089150320e-20  2.6284359361123562e-20  8.4388791912739107e-21  1.3591893965256956e-20  -1.5413612722375257e-20  -5.0928147761406046e-20  4.3308332223175010e-20  2.6439276858176602e-20  -6.0091577735252799e-20  -3.2735744655016968e-20  1.2443758992917953e-20  4.1985733943314177e-20  3.5701626996064796e-20  1.5637224461628665e-21  5.6718001699226904e-21  6.2968735295660795e-21  -6.4616411334999164e-06  1.3036812708040217e-05  3.7085637556436357e-05  6.1471849793953584e-05  8.7965298868201809e-05  1.1464898297018384e-04  1.4057928768231324e-04  1.6305840006474508e-04  1.7368734201081692e-04  1.8581504241635887e-04  1.9005278329537340e-04  1.9085660270499322e-04  1.8401551252630107e-04  1.7069005761703111e-04  1.5111342762141319e-04  1.2501539034798245e-04  9.2261792313558217e-05  5.3717507975856773e-05  7.1691913870593924e-06  -4.3710837722731814e-05  -9.0965547772862220e-05  -1.3482330335276371e-04  -1.6733900907684631e-04  -1.9307286254638731e-04  -2.1186595169089562e-04  -2.2155092588679051e-04  -2.2234569336788886e-04  -2.1441080190884028e-04  -1.9819387615917369e-04  -1.7481277634826177e-04  -1.4284782825252660e-04  -1.0410529691533372e-04  -6.2090026541731686e-05  -1.5270927608209548e-05  2.7627951715026230e-05  6.8595571640576010e-05  9.7670396451255795e-05  1.1812127636533814e-04  1.2935417062105156e-04  1.3096811872308803e-04  1.2430165486479897e-04  1.0843659432205124e-04  8.2695196155617553e-05  6.0673227470324877e-05  4.3267240630362970e-05  2.9665566034234479e-05  2.2856456418610554e-05  2.1275870554344773e-05  2.4805068230382919e-05  3.6164393214789473e-05  4.9440634450526635e-05  6.6008456285402686e-05  7.9322554554249171e-05  8.5471781379600734e-05  8.4800626142375797e-05  7.6536208722699620e-05  6.3333171784055173e-05  4.6167634775603521e-05  2.6797476038195399e-05  8.4310071533940214e-06  -8.0752027042599848e-06  -2.1846983856444401e-05  -3.2431131898277566e-05  -3.9700208344039099e-05  -4.1856949572531297e-05  -4.0809399991977117e-05  -3.3094015106149972e-05  5.6885216033144520e-05  9.1550755499723643e-05  1.1052174854976042e-04  1.6442644422842018e-04  -3.3390904296103193e-05  -2.4498530851646338e-04  -4.0453357345514535e-05  -2.5184123078327058e-04  9.0514243964157559e-05  2.1102780392291267e-05  -1.5239247444296129e-04  5.9444045106589601e-05  2.7615427855129712e-05  -2.7266016207008815e-05  -6.3473351650733604e-05  1.0621949999493637e-04  5.2362209416522259e-06  3.4059030452747509e-05  3.8800110605465733e-05  -5.4562930596123067e-05  1.4886083671160008e-04  -5.9570981119046609e-05  1.4701210641082662e-04  3.9475904120903094e-05  -1.4386915769116853e-04  -2.6613149433878173e-04  3.6786998228505569e-05  5.0755054299967715e-06  -4.4339021644828769e-05  -2.5640246725584548e-05  -1.2366831479682640e-05  -2.1162326049839585e-05  -5.8283596884214635e-06  -1.3810273699361721e-05  -2.4332382252367793e-05  -1.3629295240396285e-07  -1.1596290308324037e-05  8.2978955063238023e-06  -2.4273251779886751e-05  -3.0114409673132901e-05  -1.9191726671651268e-05  -1.3529463959529177e-05  3.1251057008856762e-06  1.8946588419717656e-05  4.0065933110010914e-05  6.7291361433060025e-05  8.8029117243728947e-05  4.9458386541111476e-05  9.3220064127014468e-05  5.5930016922327277e-05  1.0561310350820344e-05  -2.8697417657142055e-06  4.0608603799863374e-05  -2.6193331362445026e-05  -6.2528206714082356e-05  -9.3629241917690599e-05  -1.1697533829615943e-04  -1.6313219085667660e-04  -1.7449106126561306e-04  -1.2178930322441384e-04  -1.5561004102041147e-04  -1.0275826557523899e-04  -1.0986511118622221e-04  -6.4929664778423567e-05  3.7901443370619693e-05  -5.1328860274889249e-05  -2.2100859951903570e-05  -2.0503848608013426e-04  2.2447671980447598e-05  2.8863716384762324e-05  1.3331491207935458e-05  2.8480821244315013e-05  1.6478839654011793e-05  3.2953510283780008e-05  3.9495286429084675e-05  4.2740870371262822e-05  4.2872166389646411e-05  4.8348600605001624e-05  5.5735371166352117e-05  3.8575765852243144e-05  -3.0990269412874307e-05  4.1300066640371899e-05  6.1462081741733420e-05  -3.7022208857259497e-06  -1.2424587315863989e-04  4.7356730957005920e-05  3.9643838646245548e-05  3.8447760664015431e-05  8.3229599437921273e-06  2.3163387763728619e-05  -2.9540483055583897e-05  -1.5749304619503237e-04  -3.4476310676917874e-05  2.2236956014211895e-05  1.0870517157382052e-04  -1.0226268113226283e-04  -2.4726530348704779e-05  5.4463303000995066e-05  3.7458570525822243e-05  3.5149838445363223e-06  4.4744202939597429e-05  3.9190560622172515e-05  -9.6079198337210980e-06  -2.0057640707305402e-05  7.5867315531864645e-05  8.1984541762214347e-05  8.3949486512992618e-05  6.3972303372078547e-05  -1.8758024265441357e-05  -6.7354268158870047e-05  -6.3958247206309918e-06  -9.3645200765186338e-05  -1.3946281657537557e-04  -1.9436620903188074e-04  -2.2005341865173863e-04  -2.1912341218340717e-04  -1.9389194694029077e-04  -1.8776406852241768e-04  8.1292584710702863e-05  1.1315090697126465e-04  5.3740608272391248e-05  2.3479061417188084e-05  -1.3702811412687896e-04  8.3375087863369840e-05  4.2357115732877893e-05  5.5445826512131910e-05  4.8609694152574541e-05  5.5563239770281791e-05  3.6215829641480893e-05  8.9534102302386398e-05  1.3152647948622994e-04  1.2123219609088745e-04  4.6224394149247931e-05  5.9160136426499773e-05  -3.6422343680369650e-05  -3.8603583656708436e-05  -8.0119419076642065e-05  6.4405935530258964e-05  1.2519436051701847e-04  1.3770588117208092e-04  -2.1805469565946639e-04  8.9638619128476197e-06  -2.8752731105194212e-06  7.5145589596525776e-05  4.1791170078432200e-05  4.4214208830209236e-05  6.0297408198246603e-05  -2.0459267303701040e-05  9.0243070532301526e-05  9.7705461748951900e-05  -3.5065499283988188e-05  2.5382835909901673e-05  1.9779040934499742e-05  6.4542668101663070e-05  -7.5397348146457985e-06  4.0163084399384767e-05  5.2490273924637354e-05  -1.9862179565600433e-04  6.1796011379099705e-05  4.0735776083876657e-05  3.6421441115944237e-05  1.2927949909831251e-05  -2.0810314430943547e-06  -1.7621176886852411e-05  -1.3878869433988671e-05  2.4791658211265050e-05  7.7994086247870891e-05  -1.0466770717339796e-04  -2.2849889947058782e-04  -7.7695642708693795e-05  -6.1699345874938817e-05  6.2952939456712920e-05  7.9050163491968319e-05  5.1568199619271117e-05  5.0991588926291028e-05  1.6558708160241645e-04  1.5029570055744135e-04  -6.5380005662193656e-05  1.6082158432687043e-04  1.2650862310251527e-05  1.3229750084636576e-04  1.4538768663679824e-05  7.1941793316506787e-05  5.0193161875733797e-05  1.4192172049670793e-04  -5.7192141486501420e-05  1.5800621308663065e-04  1.0083146477524416e-06  1.2810456800939980e-04  -1.7612009494637047e-04  -2.1341364366594416e-04  -2.5729641952994801e-04  -1.0846722783825039e-04  9.9161586674612392e-06  -2.6896896977823131e-04  -4.8649627340973638e-05  -2.7383066979449959e-05  -3.2175271716069467e-05  -2.2320797657362254e-04  5.0238424991677635e-05  -7.9452440934978726e-05  -6.1813989352566004e-05  -3.4069673609853046e-05  -8.2651995615080727e-05  3.0711452429001650e-05  7.1677715675787145e-05  -3.7677906561635133e-05  -1.9581370427610462e-04  8.1571935441343278e-05  -4.6668851662703503e-05  1.0794457497794767e-04  -2.5692485406675185e-04  2.1171097543847482e-05  -2.6345440904496072e-05  -3.9345604427164688e-05  -2.4405118233224426e-04  2.8900908330878142e-05  5.7043105361769300e-05  1.5180217201552653e-04  1.2247547413379364e-05  9.2323293718604184e-05  1.8504698366882469e-05  -1.7328505597332492e-05  -1.8407502970260552e-05  -1.1247444495563198e-05  -2.8014119810089781e-08  1.3042270598167567e-04  -1.5733048029479844e-04  8.3025174758799133e-05  -3.0865854492560704e-05  1.4958510857547273e-04  5.9414693178616629e-05  6.8702406278137469e-05  1.3223878173820782e-04  -4.7442738969868127e-06  -4.8708824825927545e-05  1.0052290071198900e-04  -6.7270548945824884e-05  -2.0476556004309036e-04  -2.0983449544328942e-04  4.1363811735992358e-05  -1.9928768363893697e-04  4.5237175071331991e-05  -3.3738064396339419e-06  -2.9714005369790421e-05  -1.6551774282183579e-04  5.9225276675394770e-05  5.5485352325007331e-06  1.2065141938548682e-04  1.0527057933358017e-04  -8.2296568872178028e-05  9.4049542942994295e-05  -2.2249086287345641e-04  8.0053364358946789e-06  3.2695828043952522e-05  -3.2390617254380312e-05  -3.9710504779494744e-05  1.0459024534620102e-04  -1.2765738308674100e-04  -1.6334458705494638e-04  -1.7584580058438247e-04  3.5115466533947310e-05  -1.1067588197435198e-04  2.5468361448164622e-05  -2.6269038566270841e-04  4.8812144192027966e-05  -4.5244332181946205e-06  5.3426187470714923e-05  -3.7091741846057011e-05  -2.2248056464530779e-05  1.0782361296954927e-05  -3.4983078845376747e-05  -2.3337737724450864e-05  3.2750674040685398e-05  -4.2487730614075141e-05  1.3094133874635844e-05  -2.0710689617032837e-05  4.8634523627043095e-05  -4.3831052509641122e-06  5.4604174740296120e-05  2.3261415841092822e-05  1.1701986196982015e-04  1.0191521326225806e-04  7.4566189044735111e-05  -6.0244287301180589e-05  5.0178987284025197e-05  1.0038750730256935e-04  2.3598378096771788e-06  4.9338014265475853e-05  3.5648223210253014e-06  1.2059756200937504e-04  3.6359069788144632e-06  6.4753520999428260e-05  5.5145558049617680e-05  -1.0779432453127982e-04  -1.4025126990413646e-04  -3.4134416089404667e-05  6.3927757803790039e-06  2.4292408692922584e-06  1.2150391883893729e-05  1.4349295767965726e-04  1.2330616765121601e-05  2.4856228991919604e-05  -1.9184813747238176e-04  -2.0939419557491440e-04  1.5288047347179507e-04  1.3632523191276582e-05  1.7864768379270926e-04  1.9684974292324739e-05  -1.9124308965569382e-04  -1.7521394861403954e-05  -2.3370966718489745e-05  3.6689246336155264e-05  7.3304837871975619e-05  5.6187463691672450e-06  -3.3603213030146567e-07  1.7707462542475950e-04  -1.3054833824672209e-05  -4.3682430538982828e-06  2.2174283502900238e-05  2.6392360712187710e-05  3.0715933405264905e-05  -2.1174266168248077e-05  -1.9589142386204078e-06  -3.5114121688371622e-05  4.3936536181545392e-05  -4.3382401458307589e-05  3.5937892714309185e-05  3.5915707241309202e-05  2.7398216521604382e-05  -5.2851485279077223e-05  1.3060303828782968e-05  1.0694607677347237e-05  1.7102909667327552e-05  1.9623551073891267e-05  8.6645082872519812e-06  -4.1345377388463895e-06  7.6645477725171781e-06  9.8072438611834619e-06  1.3675940702110397e-05  4.3491772451895289e-06  -5.9822333294426681e-07  3.3691046937469251e-05  3.7813174059665354e-05  2.9644332532831416e-05  3.2325773192217093e-05  4.2203941326353795e-05  2.5056972058445640e-05  2.6158135765312949e-05  2.4314052968032258e-05  2.0331711085990162e-05  2.1467156379880023e-05  2.7671366806987216e-05  -1.7001453069557740e-04  -1.4813756492009148e-04  -1.2102176705992226e-04  -1.2765139949806039e-04  -1.0267753525287527e-04  -1.4884037866736235e-04  -1.0609897014491044e-04  -7.8255406342005998e-05  -8.2913314059386242e-05  -5.6486196420749241e-05  -4.3997820294064573e-05  -2.9081876187581482e-05  -1.1623834483528392e-05  -3.8977700484940895e-05  -4.3565672149861875e-06  1.6138222461360633e-05  1.5237182286815342e-05  7.6887430394356137e-07  3.5111706022192583e-05  4.3073103332438105e-05  5.8968985170225822e-05  7.3099441802017943e-05  8.3995811835479645e-05  -1.0564202198527223e-04  -7.9009898974153895e-05  1.0086665774694317e-04  1.0924319808868464e-04  2.8695069522977587e-05  -9.7114692885586342e-05  8.0908744429215393e-05  -2.6904129849612859e-05  4.5855068323176063e-05  9.8400824473782872e-05  1.2663114286396929e-04  1.1138250861508863e-04  1.4028645251287452e-04  1.1970065083506792e-04  1.5024664240769899e-04  1.2287830402159903e-04  1.4958115679299612e-04  1.1887093616766962e-04  1.3870774161619639e-04  1.1187153917430119e-04  1.2795956765547585e-04  1.0097105894563435e-04  1.0949309657012054e-04  8.6671688222525624e-05  9.1253220262817265e-05  7.2590381115287408e-05  7.3442940931287657e-05  5.8067761707378031e-05  5.7366198521141237e-05  6.6267468504057375e-05  5.0047758253612951e-05  4.3568892718572554e-05  3.6517918601247595e-05  3.7805441196559580e-05  2.6040620194379100e-05  2.3252443952321276e-05  3.1548514958427988e-05  1.4677920301143428e-05  8.6537414378598250e-06  1.6834261987144962e-05  3.3717870970846256e-05  2.4341950056994318e-05  3.2590409520099848e-06  -4.0271642632214227e-06  3.6464951052696573e-05  -4.7530410883388033e-07  -1.4223948966372311e-05  -1.2469180560005743e-05  -2.0750864157543327e-05  -1.6009850966231761e-05  -2.2463871158406458e-05  -2.7621080814443342e-05  -2.7486771131290818e-05  -2.0219662011600833e-05  -2.1375870522878579e-05  -1.4845347902884748e-05  -1.2864875738199286e-05  -1.8440254508188995e-05  -5.5899880342822545e-06  -2.4496875761156215e-06  6.7365289652577849e-06  7.7805063772817893e-06  1.7602319398071205e-05  1.7804143470649434e-05  2.9789713872176123e-05  2.6537903060527081e-05  3.8136619788010413e-05  4.2915387254862372e-05  4.9321642093787581e-05  4.2515783251073180e-05  5.0998050245409648e-05  5.8080657965584312e-05  5.6713054053480222e-05  4.8442522736242328e-05  5.1240180896262336e-05  5.7991726863495439e-05  4.2894611107316273e-05  5.0152893811444058e-05  5.4556067274202062e-05  4.5206727659540730e-05  4.6982140208083145e-05  6.1946989982589537e-05  3.8568753646388786e-05  3.8778724018224694e-05  3.2997605817877095e-05  1.0799486194768098e-04  3.6712999965310293e-05  3.7975741582612844e-05  -6.7604599238274871e-05  4.6701198600863191e-05  3.5085615988814773e-05  2.8146700467311925e-05  8.5158996904157396e-05  4.3124801410823597e-05  -5.5332153217269037e-05  3.5224098131778501e-05  -8.1131929865160466e-06  2.0795545674845844e-05  -1.2286966065330582e-05  -9.3525498055561220e-06  5.2018454666016569e-05  2.5794511733205819e-05  1.4811085741338521e-04  2.6091500626472289e-05  1.5047563299511296e-04  -1.3162750774545682e-05  7.7068856069950881e-07  -9.0455879553798772e-05  1.5605134733884281e-05  7.6349492650246793e-05  -3.1621319611321310e-05  -3.0116858101509704e-05  -2.4068236969590998e-05  -1.2495154581932134e-04  -1.0785092890837110e-04  -1.4433018802322369e-04  -1.1096290679538154e-04  -1.4164605646959443e-04  -1.7128956285871006e-04  -1.6651238310430301e-04  -1.3130490567503082e-04  -1.5798484469591517e-04  -1.1444788005201477e-04  -1.2943711908711220e-04  -1.5795979145474974e-04  -1.3679924529332485e-04  -9.9308110323273187e-05  -9.8410391035010105e-05  -1.2286953507555519e-04  -8.8214478095152395e-05  -6.4198761308257075e-05  -4.7249814989883524e-05  -5.9687632309626695e-05  -2.2916507626215682e-05  -1.4157732370242805e-05  1.1948237618752484e-05  1.2539749655034583e-05  3.5951116493524742e-05  3.8468454678694507e-05  6.0062097380378889e-05  5.0786149832567406e-05  6.9726293471497649e-05  8.1899601890578132e-05  8.3360223087534423e-05  9.6340291391625282e-05  9.0095623775626892e-05  6.9440099501705377e-05  1.0118165061612409e-04  8.8579859179192059e-05  9.6656042951978418e-05  1.0678035627279454e-04  7.6136668776793890e-05  -3.2410547333382633e-05  -6.8228459185517412e-06  1.3545260974144279e-05  7.9161245810573146e-05  8.4304823216770791e-05  9.9639078242049151e-05  8.5517785507080660e-05  9.5704056720271198e-05  6.9598509931083206e-05  6.3695230562528019e-05  -6.7163749775248283e-05  -3.7151839686141572e-05  -4.9147497706025348e-06  1.0596834610492727e-04  3.2843527224779456e-05  -3.2914909128913887e-07  4.3803173655055986e-06  8.3126325168865904e-05  -2.2731759046932279e-05  1.9393593092909730e-05  -1.7830880137949422e-04  -1.9174484624741328e-04  1.0210707235135379e-04  -2.6486075972528568e-05  5.0156964395060404e-05  1.6240447911896173e-04  1.5738002504000145e-04  1.6095062248998538e-04  4.9585515161120841e-05  -1.8859786821523144e-04  -3.3289830347025397e-05  7.3261585585734121e-05  8.7887777955805604e-05  7.2563616981486818e-05  1.0608452021637667e-04  9.3795818020719039e-05  1.6012837651828104e-04  1.1284766033693976e-05  2.8365699084793476e-05  -9.7657058933400983e-05  -1.3393916905298398e-04  2.2313827715295590e-05  2.7430677553040339e-05  3.2702204894096291